PSF EXT CMAP XPLOR

         3 !NTITLE
* GENERATED BY CHARMM-GUI (HTTP://WWW.CHARMM-GUI.ORG) V3.7 ON JUL, 07. 2026. JOB
* GET A DIFFERENT CONFORMATION FOR LIPIDS PENETRATING PROTEIN / CHOL            
*  DATE:     7/ 7/26      9:38:42      CREATED BY USER: charmm-gui              

     18716 !NATOM
         1 PROA     2        GLY      N        NH3     -0.300000       14.0070           0
         2 PROA     2        GLY      HT1      HC       0.330000       1.00800           0
         3 PROA     2        GLY      HT2      HC       0.330000       1.00800           0
         4 PROA     2        GLY      HT3      HC       0.330000       1.00800           0
         5 PROA     2        GLY      CA       CT2      0.130000       12.0110           0
         6 PROA     2        GLY      HA1      HB2      0.900000E-01   1.00800           0
         7 PROA     2        GLY      HA2      HB2      0.900000E-01   1.00800           0
         8 PROA     2        GLY      C        C        0.510000       12.0110           0
         9 PROA     2        GLY      O        O       -0.510000       15.9994           0
        10 PROA     3        ALA      N        NH1     -0.470000       14.0070           0
        11 PROA     3        ALA      HN       H        0.310000       1.00800           0
        12 PROA     3        ALA      CA       CT1      0.700000E-01   12.0110           0
        13 PROA     3        ALA      HA       HB1      0.900000E-01   1.00800           0
        14 PROA     3        ALA      CB       CT3     -0.270000       12.0110           0
        15 PROA     3        ALA      HB1      HA3      0.900000E-01   1.00800           0
        16 PROA     3        ALA      HB2      HA3      0.900000E-01   1.00800           0
        17 PROA     3        ALA      HB3      HA3      0.900000E-01   1.00800           0
        18 PROA     3        ALA      C        C        0.510000       12.0110           0
        19 PROA     3        ALA      O        O       -0.510000       15.9994           0
        20 PROA     4        LEU      N        NH1     -0.470000       14.0070           0
        21 PROA     4        LEU      HN       H        0.310000       1.00800           0
        22 PROA     4        LEU      CA       CT1      0.700000E-01   12.0110           0
        23 PROA     4        LEU      HA       HB1      0.900000E-01   1.00800           0
        24 PROA     4        LEU      CB       CT2     -0.180000       12.0110           0
        25 PROA     4        LEU      HB1      HA2      0.900000E-01   1.00800           0
        26 PROA     4        LEU      HB2      HA2      0.900000E-01   1.00800           0
        27 PROA     4        LEU      CG       CT1     -0.900000E-01   12.0110           0
        28 PROA     4        LEU      HG       HA1      0.900000E-01   1.00800           0
        29 PROA     4        LEU      CD1      CT3     -0.270000       12.0110           0
        30 PROA     4        LEU      HD11     HA3      0.900000E-01   1.00800           0
        31 PROA     4        LEU      HD12     HA3      0.900000E-01   1.00800           0
        32 PROA     4        LEU      HD13     HA3      0.900000E-01   1.00800           0
        33 PROA     4        LEU      CD2      CT3     -0.270000       12.0110           0
        34 PROA     4        LEU      HD21     HA3      0.900000E-01   1.00800           0
        35 PROA     4        LEU      HD22     HA3      0.900000E-01   1.00800           0
        36 PROA     4        LEU      HD23     HA3      0.900000E-01   1.00800           0
        37 PROA     4        LEU      C        C        0.510000       12.0110           0
        38 PROA     4        LEU      O        O       -0.510000       15.9994           0
        39 PROA     5        ALA      N        NH1     -0.470000       14.0070           0
        40 PROA     5        ALA      HN       H        0.310000       1.00800           0
        41 PROA     5        ALA      CA       CT1      0.700000E-01   12.0110           0
        42 PROA     5        ALA      HA       HB1      0.900000E-01   1.00800           0
        43 PROA     5        ALA      CB       CT3     -0.270000       12.0110           0
        44 PROA     5        ALA      HB1      HA3      0.900000E-01   1.00800           0
        45 PROA     5        ALA      HB2      HA3      0.900000E-01   1.00800           0
        46 PROA     5        ALA      HB3      HA3      0.900000E-01   1.00800           0
        47 PROA     5        ALA      C        C        0.510000       12.0110           0
        48 PROA     5        ALA      O        O       -0.510000       15.9994           0
        49 PROA     6        VAL      N        NH1     -0.470000       14.0070           0
        50 PROA     6        VAL      HN       H        0.310000       1.00800           0
        51 PROA     6        VAL      CA       CT1      0.700000E-01   12.0110           0
        52 PROA     6        VAL      HA       HB1      0.900000E-01   1.00800           0
        53 PROA     6        VAL      CB       CT1     -0.900000E-01   12.0110           0
        54 PROA     6        VAL      HB       HA1      0.900000E-01   1.00800           0
        55 PROA     6        VAL      CG1      CT3     -0.270000       12.0110           0
        56 PROA     6        VAL      HG11     HA3      0.900000E-01   1.00800           0
        57 PROA     6        VAL      HG12     HA3      0.900000E-01   1.00800           0
        58 PROA     6        VAL      HG13     HA3      0.900000E-01   1.00800           0
        59 PROA     6        VAL      CG2      CT3     -0.270000       12.0110           0
        60 PROA     6        VAL      HG21     HA3      0.900000E-01   1.00800           0
        61 PROA     6        VAL      HG22     HA3      0.900000E-01   1.00800           0
        62 PROA     6        VAL      HG23     HA3      0.900000E-01   1.00800           0
        63 PROA     6        VAL      C        C        0.510000       12.0110           0
        64 PROA     6        VAL      O        O       -0.510000       15.9994           0
        65 PROA     7        VAL      N        NH1     -0.470000       14.0070           0
        66 PROA     7        VAL      HN       H        0.310000       1.00800           0
        67 PROA     7        VAL      CA       CT1      0.700000E-01   12.0110           0
        68 PROA     7        VAL      HA       HB1      0.900000E-01   1.00800           0
        69 PROA     7        VAL      CB       CT1     -0.900000E-01   12.0110           0
        70 PROA     7        VAL      HB       HA1      0.900000E-01   1.00800           0
        71 PROA     7        VAL      CG1      CT3     -0.270000       12.0110           0
        72 PROA     7        VAL      HG11     HA3      0.900000E-01   1.00800           0
        73 PROA     7        VAL      HG12     HA3      0.900000E-01   1.00800           0
        74 PROA     7        VAL      HG13     HA3      0.900000E-01   1.00800           0
        75 PROA     7        VAL      CG2      CT3     -0.270000       12.0110           0
        76 PROA     7        VAL      HG21     HA3      0.900000E-01   1.00800           0
        77 PROA     7        VAL      HG22     HA3      0.900000E-01   1.00800           0
        78 PROA     7        VAL      HG23     HA3      0.900000E-01   1.00800           0
        79 PROA     7        VAL      C        C        0.510000       12.0110           0
        80 PROA     7        VAL      O        O       -0.510000       15.9994           0
        81 PROA     8        VAL      N        NH1     -0.470000       14.0070           0
        82 PROA     8        VAL      HN       H        0.310000       1.00800           0
        83 PROA     8        VAL      CA       CT1      0.700000E-01   12.0110           0
        84 PROA     8        VAL      HA       HB1      0.900000E-01   1.00800           0
        85 PROA     8        VAL      CB       CT1     -0.900000E-01   12.0110           0
        86 PROA     8        VAL      HB       HA1      0.900000E-01   1.00800           0
        87 PROA     8        VAL      CG1      CT3     -0.270000       12.0110           0
        88 PROA     8        VAL      HG11     HA3      0.900000E-01   1.00800           0
        89 PROA     8        VAL      HG12     HA3      0.900000E-01   1.00800           0
        90 PROA     8        VAL      HG13     HA3      0.900000E-01   1.00800           0
        91 PROA     8        VAL      CG2      CT3     -0.270000       12.0110           0
        92 PROA     8        VAL      HG21     HA3      0.900000E-01   1.00800           0
        93 PROA     8        VAL      HG22     HA3      0.900000E-01   1.00800           0
        94 PROA     8        VAL      HG23     HA3      0.900000E-01   1.00800           0
        95 PROA     8        VAL      C        C        0.510000       12.0110           0
        96 PROA     8        VAL      O        O       -0.510000       15.9994           0
        97 PROA     9        TRP      N        NH1     -0.470000       14.0070           0
        98 PROA     9        TRP      HN       H        0.310000       1.00800           0
        99 PROA     9        TRP      CA       CT1      0.700000E-01   12.0110           0
       100 PROA     9        TRP      HA       HB1      0.900000E-01   1.00800           0
       101 PROA     9        TRP      CB       CT2     -0.180000       12.0110           0
       102 PROA     9        TRP      HB1      HA2      0.900000E-01   1.00800           0
       103 PROA     9        TRP      HB2      HA2      0.900000E-01   1.00800           0
       104 PROA     9        TRP      CG       CY      -0.300000E-01   12.0110           0
       105 PROA     9        TRP      CD1      CA      -0.150000       12.0110           0
       106 PROA     9        TRP      HD1      HP       0.220000       1.00800           0
       107 PROA     9        TRP      NE1      NY      -0.510000       14.0070           0
       108 PROA     9        TRP      HE1      H        0.370000       1.00800           0
       109 PROA     9        TRP      CE2      CPT      0.240000       12.0110           0
       110 PROA     9        TRP      CD2      CPT      0.110000       12.0110           0
       111 PROA     9        TRP      CE3      CAI     -0.250000       12.0110           0
       112 PROA     9        TRP      HE3      HP       0.170000       1.00800           0
       113 PROA     9        TRP      CZ3      CA      -0.200000       12.0110           0
       114 PROA     9        TRP      HZ3      HP       0.140000       1.00800           0
       115 PROA     9        TRP      CZ2      CAI     -0.270000       12.0110           0
       116 PROA     9        TRP      HZ2      HP       0.160000       1.00800           0
       117 PROA     9        TRP      CH2      CA      -0.140000       12.0110           0
       118 PROA     9        TRP      HH2      HP       0.140000       1.00800           0
       119 PROA     9        TRP      C        C        0.510000       12.0110           0
       120 PROA     9        TRP      O        O       -0.510000       15.9994           0
       121 PROA     10       LEU      N        NH1     -0.470000       14.0070           0
       122 PROA     10       LEU      HN       H        0.310000       1.00800           0
       123 PROA     10       LEU      CA       CT1      0.700000E-01   12.0110           0
       124 PROA     10       LEU      HA       HB1      0.900000E-01   1.00800           0
       125 PROA     10       LEU      CB       CT2     -0.180000       12.0110           0
       126 PROA     10       LEU      HB1      HA2      0.900000E-01   1.00800           0
       127 PROA     10       LEU      HB2      HA2      0.900000E-01   1.00800           0
       128 PROA     10       LEU      CG       CT1     -0.900000E-01   12.0110           0
       129 PROA     10       LEU      HG       HA1      0.900000E-01   1.00800           0
       130 PROA     10       LEU      CD1      CT3     -0.270000       12.0110           0
       131 PROA     10       LEU      HD11     HA3      0.900000E-01   1.00800           0
       132 PROA     10       LEU      HD12     HA3      0.900000E-01   1.00800           0
       133 PROA     10       LEU      HD13     HA3      0.900000E-01   1.00800           0
       134 PROA     10       LEU      CD2      CT3     -0.270000       12.0110           0
       135 PROA     10       LEU      HD21     HA3      0.900000E-01   1.00800           0
       136 PROA     10       LEU      HD22     HA3      0.900000E-01   1.00800           0
       137 PROA     10       LEU      HD23     HA3      0.900000E-01   1.00800           0
       138 PROA     10       LEU      C        C        0.510000       12.0110           0
       139 PROA     10       LEU      O        O       -0.510000       15.9994           0
       140 PROA     11       TRP      N        NH1     -0.470000       14.0070           0
       141 PROA     11       TRP      HN       H        0.310000       1.00800           0
       142 PROA     11       TRP      CA       CT1      0.700000E-01   12.0110           0
       143 PROA     11       TRP      HA       HB1      0.900000E-01   1.00800           0
       144 PROA     11       TRP      CB       CT2     -0.180000       12.0110           0
       145 PROA     11       TRP      HB1      HA2      0.900000E-01   1.00800           0
       146 PROA     11       TRP      HB2      HA2      0.900000E-01   1.00800           0
       147 PROA     11       TRP      CG       CY      -0.300000E-01   12.0110           0
       148 PROA     11       TRP      CD1      CA      -0.150000       12.0110           0
       149 PROA     11       TRP      HD1      HP       0.220000       1.00800           0
       150 PROA     11       TRP      NE1      NY      -0.510000       14.0070           0
       151 PROA     11       TRP      HE1      H        0.370000       1.00800           0
       152 PROA     11       TRP      CE2      CPT      0.240000       12.0110           0
       153 PROA     11       TRP      CD2      CPT      0.110000       12.0110           0
       154 PROA     11       TRP      CE3      CAI     -0.250000       12.0110           0
       155 PROA     11       TRP      HE3      HP       0.170000       1.00800           0
       156 PROA     11       TRP      CZ3      CA      -0.200000       12.0110           0
       157 PROA     11       TRP      HZ3      HP       0.140000       1.00800           0
       158 PROA     11       TRP      CZ2      CAI     -0.270000       12.0110           0
       159 PROA     11       TRP      HZ2      HP       0.160000       1.00800           0
       160 PROA     11       TRP      CH2      CA      -0.140000       12.0110           0
       161 PROA     11       TRP      HH2      HP       0.140000       1.00800           0
       162 PROA     11       TRP      C        C        0.510000       12.0110           0
       163 PROA     11       TRP      O        O       -0.510000       15.9994           0
       164 PROA     12       LEU      N        NH1     -0.470000       14.0070           0
       165 PROA     12       LEU      HN       H        0.310000       1.00800           0
       166 PROA     12       LEU      CA       CT1      0.700000E-01   12.0110           0
       167 PROA     12       LEU      HA       HB1      0.900000E-01   1.00800           0
       168 PROA     12       LEU      CB       CT2     -0.180000       12.0110           0
       169 PROA     12       LEU      HB1      HA2      0.900000E-01   1.00800           0
       170 PROA     12       LEU      HB2      HA2      0.900000E-01   1.00800           0
       171 PROA     12       LEU      CG       CT1     -0.900000E-01   12.0110           0
       172 PROA     12       LEU      HG       HA1      0.900000E-01   1.00800           0
       173 PROA     12       LEU      CD1      CT3     -0.270000       12.0110           0
       174 PROA     12       LEU      HD11     HA3      0.900000E-01   1.00800           0
       175 PROA     12       LEU      HD12     HA3      0.900000E-01   1.00800           0
       176 PROA     12       LEU      HD13     HA3      0.900000E-01   1.00800           0
       177 PROA     12       LEU      CD2      CT3     -0.270000       12.0110           0
       178 PROA     12       LEU      HD21     HA3      0.900000E-01   1.00800           0
       179 PROA     12       LEU      HD22     HA3      0.900000E-01   1.00800           0
       180 PROA     12       LEU      HD23     HA3      0.900000E-01   1.00800           0
       181 PROA     12       LEU      C        C        0.510000       12.0110           0
       182 PROA     12       LEU      O        O       -0.510000       15.9994           0
       183 PROA     13       TRP      N        NH1     -0.470000       14.0070           0
       184 PROA     13       TRP      HN       H        0.310000       1.00800           0
       185 PROA     13       TRP      CA       CT1      0.700000E-01   12.0110           0
       186 PROA     13       TRP      HA       HB1      0.900000E-01   1.00800           0
       187 PROA     13       TRP      CB       CT2     -0.180000       12.0110           0
       188 PROA     13       TRP      HB1      HA2      0.900000E-01   1.00800           0
       189 PROA     13       TRP      HB2      HA2      0.900000E-01   1.00800           0
       190 PROA     13       TRP      CG       CY      -0.300000E-01   12.0110           0
       191 PROA     13       TRP      CD1      CA      -0.150000       12.0110           0
       192 PROA     13       TRP      HD1      HP       0.220000       1.00800           0
       193 PROA     13       TRP      NE1      NY      -0.510000       14.0070           0
       194 PROA     13       TRP      HE1      H        0.370000       1.00800           0
       195 PROA     13       TRP      CE2      CPT      0.240000       12.0110           0
       196 PROA     13       TRP      CD2      CPT      0.110000       12.0110           0
       197 PROA     13       TRP      CE3      CAI     -0.250000       12.0110           0
       198 PROA     13       TRP      HE3      HP       0.170000       1.00800           0
       199 PROA     13       TRP      CZ3      CA      -0.200000       12.0110           0
       200 PROA     13       TRP      HZ3      HP       0.140000       1.00800           0
       201 PROA     13       TRP      CZ2      CAI     -0.270000       12.0110           0
       202 PROA     13       TRP      HZ2      HP       0.160000       1.00800           0
       203 PROA     13       TRP      CH2      CA      -0.140000       12.0110           0
       204 PROA     13       TRP      HH2      HP       0.140000       1.00800           0
       205 PROA     13       TRP      C        C        0.510000       12.0110           0
       206 PROA     13       TRP      O        O       -0.510000       15.9994           0
       207 PROA     14       LEU      N        NH1     -0.470000       14.0070           0
       208 PROA     14       LEU      HN       H        0.310000       1.00800           0
       209 PROA     14       LEU      CA       CT1      0.700000E-01   12.0110           0
       210 PROA     14       LEU      HA       HB1      0.900000E-01   1.00800           0
       211 PROA     14       LEU      CB       CT2     -0.180000       12.0110           0
       212 PROA     14       LEU      HB1      HA2      0.900000E-01   1.00800           0
       213 PROA     14       LEU      HB2      HA2      0.900000E-01   1.00800           0
       214 PROA     14       LEU      CG       CT1     -0.900000E-01   12.0110           0
       215 PROA     14       LEU      HG       HA1      0.900000E-01   1.00800           0
       216 PROA     14       LEU      CD1      CT3     -0.270000       12.0110           0
       217 PROA     14       LEU      HD11     HA3      0.900000E-01   1.00800           0
       218 PROA     14       LEU      HD12     HA3      0.900000E-01   1.00800           0
       219 PROA     14       LEU      HD13     HA3      0.900000E-01   1.00800           0
       220 PROA     14       LEU      CD2      CT3     -0.270000       12.0110           0
       221 PROA     14       LEU      HD21     HA3      0.900000E-01   1.00800           0
       222 PROA     14       LEU      HD22     HA3      0.900000E-01   1.00800           0
       223 PROA     14       LEU      HD23     HA3      0.900000E-01   1.00800           0
       224 PROA     14       LEU      C        C        0.510000       12.0110           0
       225 PROA     14       LEU      O        O       -0.510000       15.9994           0
       226 PROA     15       TRP      N        NH1     -0.470000       14.0070           0
       227 PROA     15       TRP      HN       H        0.310000       1.00800           0
       228 PROA     15       TRP      CA       CT1      0.700000E-01   12.0110           0
       229 PROA     15       TRP      HA       HB1      0.900000E-01   1.00800           0
       230 PROA     15       TRP      CB       CT2     -0.180000       12.0110           0
       231 PROA     15       TRP      HB1      HA2      0.900000E-01   1.00800           0
       232 PROA     15       TRP      HB2      HA2      0.900000E-01   1.00800           0
       233 PROA     15       TRP      CG       CY      -0.300000E-01   12.0110           0
       234 PROA     15       TRP      CD1      CA      -0.150000       12.0110           0
       235 PROA     15       TRP      HD1      HP       0.220000       1.00800           0
       236 PROA     15       TRP      NE1      NY      -0.510000       14.0070           0
       237 PROA     15       TRP      HE1      H        0.370000       1.00800           0
       238 PROA     15       TRP      CE2      CPT      0.240000       12.0110           0
       239 PROA     15       TRP      CD2      CPT      0.110000       12.0110           0
       240 PROA     15       TRP      CE3      CAI     -0.250000       12.0110           0
       241 PROA     15       TRP      HE3      HP       0.170000       1.00800           0
       242 PROA     15       TRP      CZ3      CA      -0.200000       12.0110           0
       243 PROA     15       TRP      HZ3      HP       0.140000       1.00800           0
       244 PROA     15       TRP      CZ2      CAI     -0.270000       12.0110           0
       245 PROA     15       TRP      HZ2      HP       0.160000       1.00800           0
       246 PROA     15       TRP      CH2      CA      -0.140000       12.0110           0
       247 PROA     15       TRP      HH2      HP       0.140000       1.00800           0
       248 PROA     15       TRP      C        CC       0.340000       12.0110           0
       249 PROA     15       TRP      OT1      OC      -0.670000       15.9994           0
       250 PROA     15       TRP      OT2      OC      -0.670000       15.9994           0
       251 PROB     2        GLY      N        NH3     -0.300000       14.0070           0
       252 PROB     2        GLY      HT1      HC       0.330000       1.00800           0
       253 PROB     2        GLY      HT2      HC       0.330000       1.00800           0
       254 PROB     2        GLY      HT3      HC       0.330000       1.00800           0
       255 PROB     2        GLY      CA       CT2      0.130000       12.0110           0
       256 PROB     2        GLY      HA1      HB2      0.900000E-01   1.00800           0
       257 PROB     2        GLY      HA2      HB2      0.900000E-01   1.00800           0
       258 PROB     2        GLY      C        C        0.510000       12.0110           0
       259 PROB     2        GLY      O        O       -0.510000       15.9994           0
       260 PROB     3        ALA      N        NH1     -0.470000       14.0070           0
       261 PROB     3        ALA      HN       H        0.310000       1.00800           0
       262 PROB     3        ALA      CA       CT1      0.700000E-01   12.0110           0
       263 PROB     3        ALA      HA       HB1      0.900000E-01   1.00800           0
       264 PROB     3        ALA      CB       CT3     -0.270000       12.0110           0
       265 PROB     3        ALA      HB1      HA3      0.900000E-01   1.00800           0
       266 PROB     3        ALA      HB2      HA3      0.900000E-01   1.00800           0
       267 PROB     3        ALA      HB3      HA3      0.900000E-01   1.00800           0
       268 PROB     3        ALA      C        C        0.510000       12.0110           0
       269 PROB     3        ALA      O        O       -0.510000       15.9994           0
       270 PROB     4        LEU      N        NH1     -0.470000       14.0070           0
       271 PROB     4        LEU      HN       H        0.310000       1.00800           0
       272 PROB     4        LEU      CA       CT1      0.700000E-01   12.0110           0
       273 PROB     4        LEU      HA       HB1      0.900000E-01   1.00800           0
       274 PROB     4        LEU      CB       CT2     -0.180000       12.0110           0
       275 PROB     4        LEU      HB1      HA2      0.900000E-01   1.00800           0
       276 PROB     4        LEU      HB2      HA2      0.900000E-01   1.00800           0
       277 PROB     4        LEU      CG       CT1     -0.900000E-01   12.0110           0
       278 PROB     4        LEU      HG       HA1      0.900000E-01   1.00800           0
       279 PROB     4        LEU      CD1      CT3     -0.270000       12.0110           0
       280 PROB     4        LEU      HD11     HA3      0.900000E-01   1.00800           0
       281 PROB     4        LEU      HD12     HA3      0.900000E-01   1.00800           0
       282 PROB     4        LEU      HD13     HA3      0.900000E-01   1.00800           0
       283 PROB     4        LEU      CD2      CT3     -0.270000       12.0110           0
       284 PROB     4        LEU      HD21     HA3      0.900000E-01   1.00800           0
       285 PROB     4        LEU      HD22     HA3      0.900000E-01   1.00800           0
       286 PROB     4        LEU      HD23     HA3      0.900000E-01   1.00800           0
       287 PROB     4        LEU      C        C        0.510000       12.0110           0
       288 PROB     4        LEU      O        O       -0.510000       15.9994           0
       289 PROB     5        ALA      N        NH1     -0.470000       14.0070           0
       290 PROB     5        ALA      HN       H        0.310000       1.00800           0
       291 PROB     5        ALA      CA       CT1      0.700000E-01   12.0110           0
       292 PROB     5        ALA      HA       HB1      0.900000E-01   1.00800           0
       293 PROB     5        ALA      CB       CT3     -0.270000       12.0110           0
       294 PROB     5        ALA      HB1      HA3      0.900000E-01   1.00800           0
       295 PROB     5        ALA      HB2      HA3      0.900000E-01   1.00800           0
       296 PROB     5        ALA      HB3      HA3      0.900000E-01   1.00800           0
       297 PROB     5        ALA      C        C        0.510000       12.0110           0
       298 PROB     5        ALA      O        O       -0.510000       15.9994           0
       299 PROB     6        VAL      N        NH1     -0.470000       14.0070           0
       300 PROB     6        VAL      HN       H        0.310000       1.00800           0
       301 PROB     6        VAL      CA       CT1      0.700000E-01   12.0110           0
       302 PROB     6        VAL      HA       HB1      0.900000E-01   1.00800           0
       303 PROB     6        VAL      CB       CT1     -0.900000E-01   12.0110           0
       304 PROB     6        VAL      HB       HA1      0.900000E-01   1.00800           0
       305 PROB     6        VAL      CG1      CT3     -0.270000       12.0110           0
       306 PROB     6        VAL      HG11     HA3      0.900000E-01   1.00800           0
       307 PROB     6        VAL      HG12     HA3      0.900000E-01   1.00800           0
       308 PROB     6        VAL      HG13     HA3      0.900000E-01   1.00800           0
       309 PROB     6        VAL      CG2      CT3     -0.270000       12.0110           0
       310 PROB     6        VAL      HG21     HA3      0.900000E-01   1.00800           0
       311 PROB     6        VAL      HG22     HA3      0.900000E-01   1.00800           0
       312 PROB     6        VAL      HG23     HA3      0.900000E-01   1.00800           0
       313 PROB     6        VAL      C        C        0.510000       12.0110           0
       314 PROB     6        VAL      O        O       -0.510000       15.9994           0
       315 PROB     7        VAL      N        NH1     -0.470000       14.0070           0
       316 PROB     7        VAL      HN       H        0.310000       1.00800           0
       317 PROB     7        VAL      CA       CT1      0.700000E-01   12.0110           0
       318 PROB     7        VAL      HA       HB1      0.900000E-01   1.00800           0
       319 PROB     7        VAL      CB       CT1     -0.900000E-01   12.0110           0
       320 PROB     7        VAL      HB       HA1      0.900000E-01   1.00800           0
       321 PROB     7        VAL      CG1      CT3     -0.270000       12.0110           0
       322 PROB     7        VAL      HG11     HA3      0.900000E-01   1.00800           0
       323 PROB     7        VAL      HG12     HA3      0.900000E-01   1.00800           0
       324 PROB     7        VAL      HG13     HA3      0.900000E-01   1.00800           0
       325 PROB     7        VAL      CG2      CT3     -0.270000       12.0110           0
       326 PROB     7        VAL      HG21     HA3      0.900000E-01   1.00800           0
       327 PROB     7        VAL      HG22     HA3      0.900000E-01   1.00800           0
       328 PROB     7        VAL      HG23     HA3      0.900000E-01   1.00800           0
       329 PROB     7        VAL      C        C        0.510000       12.0110           0
       330 PROB     7        VAL      O        O       -0.510000       15.9994           0
       331 PROB     8        VAL      N        NH1     -0.470000       14.0070           0
       332 PROB     8        VAL      HN       H        0.310000       1.00800           0
       333 PROB     8        VAL      CA       CT1      0.700000E-01   12.0110           0
       334 PROB     8        VAL      HA       HB1      0.900000E-01   1.00800           0
       335 PROB     8        VAL      CB       CT1     -0.900000E-01   12.0110           0
       336 PROB     8        VAL      HB       HA1      0.900000E-01   1.00800           0
       337 PROB     8        VAL      CG1      CT3     -0.270000       12.0110           0
       338 PROB     8        VAL      HG11     HA3      0.900000E-01   1.00800           0
       339 PROB     8        VAL      HG12     HA3      0.900000E-01   1.00800           0
       340 PROB     8        VAL      HG13     HA3      0.900000E-01   1.00800           0
       341 PROB     8        VAL      CG2      CT3     -0.270000       12.0110           0
       342 PROB     8        VAL      HG21     HA3      0.900000E-01   1.00800           0
       343 PROB     8        VAL      HG22     HA3      0.900000E-01   1.00800           0
       344 PROB     8        VAL      HG23     HA3      0.900000E-01   1.00800           0
       345 PROB     8        VAL      C        C        0.510000       12.0110           0
       346 PROB     8        VAL      O        O       -0.510000       15.9994           0
       347 PROB     9        TRP      N        NH1     -0.470000       14.0070           0
       348 PROB     9        TRP      HN       H        0.310000       1.00800           0
       349 PROB     9        TRP      CA       CT1      0.700000E-01   12.0110           0
       350 PROB     9        TRP      HA       HB1      0.900000E-01   1.00800           0
       351 PROB     9        TRP      CB       CT2     -0.180000       12.0110           0
       352 PROB     9        TRP      HB1      HA2      0.900000E-01   1.00800           0
       353 PROB     9        TRP      HB2      HA2      0.900000E-01   1.00800           0
       354 PROB     9        TRP      CG       CY      -0.300000E-01   12.0110           0
       355 PROB     9        TRP      CD1      CA      -0.150000       12.0110           0
       356 PROB     9        TRP      HD1      HP       0.220000       1.00800           0
       357 PROB     9        TRP      NE1      NY      -0.510000       14.0070           0
       358 PROB     9        TRP      HE1      H        0.370000       1.00800           0
       359 PROB     9        TRP      CE2      CPT      0.240000       12.0110           0
       360 PROB     9        TRP      CD2      CPT      0.110000       12.0110           0
       361 PROB     9        TRP      CE3      CAI     -0.250000       12.0110           0
       362 PROB     9        TRP      HE3      HP       0.170000       1.00800           0
       363 PROB     9        TRP      CZ3      CA      -0.200000       12.0110           0
       364 PROB     9        TRP      HZ3      HP       0.140000       1.00800           0
       365 PROB     9        TRP      CZ2      CAI     -0.270000       12.0110           0
       366 PROB     9        TRP      HZ2      HP       0.160000       1.00800           0
       367 PROB     9        TRP      CH2      CA      -0.140000       12.0110           0
       368 PROB     9        TRP      HH2      HP       0.140000       1.00800           0
       369 PROB     9        TRP      C        C        0.510000       12.0110           0
       370 PROB     9        TRP      O        O       -0.510000       15.9994           0
       371 PROB     10       LEU      N        NH1     -0.470000       14.0070           0
       372 PROB     10       LEU      HN       H        0.310000       1.00800           0
       373 PROB     10       LEU      CA       CT1      0.700000E-01   12.0110           0
       374 PROB     10       LEU      HA       HB1      0.900000E-01   1.00800           0
       375 PROB     10       LEU      CB       CT2     -0.180000       12.0110           0
       376 PROB     10       LEU      HB1      HA2      0.900000E-01   1.00800           0
       377 PROB     10       LEU      HB2      HA2      0.900000E-01   1.00800           0
       378 PROB     10       LEU      CG       CT1     -0.900000E-01   12.0110           0
       379 PROB     10       LEU      HG       HA1      0.900000E-01   1.00800           0
       380 PROB     10       LEU      CD1      CT3     -0.270000       12.0110           0
       381 PROB     10       LEU      HD11     HA3      0.900000E-01   1.00800           0
       382 PROB     10       LEU      HD12     HA3      0.900000E-01   1.00800           0
       383 PROB     10       LEU      HD13     HA3      0.900000E-01   1.00800           0
       384 PROB     10       LEU      CD2      CT3     -0.270000       12.0110           0
       385 PROB     10       LEU      HD21     HA3      0.900000E-01   1.00800           0
       386 PROB     10       LEU      HD22     HA3      0.900000E-01   1.00800           0
       387 PROB     10       LEU      HD23     HA3      0.900000E-01   1.00800           0
       388 PROB     10       LEU      C        C        0.510000       12.0110           0
       389 PROB     10       LEU      O        O       -0.510000       15.9994           0
       390 PROB     11       TRP      N        NH1     -0.470000       14.0070           0
       391 PROB     11       TRP      HN       H        0.310000       1.00800           0
       392 PROB     11       TRP      CA       CT1      0.700000E-01   12.0110           0
       393 PROB     11       TRP      HA       HB1      0.900000E-01   1.00800           0
       394 PROB     11       TRP      CB       CT2     -0.180000       12.0110           0
       395 PROB     11       TRP      HB1      HA2      0.900000E-01   1.00800           0
       396 PROB     11       TRP      HB2      HA2      0.900000E-01   1.00800           0
       397 PROB     11       TRP      CG       CY      -0.300000E-01   12.0110           0
       398 PROB     11       TRP      CD1      CA      -0.150000       12.0110           0
       399 PROB     11       TRP      HD1      HP       0.220000       1.00800           0
       400 PROB     11       TRP      NE1      NY      -0.510000       14.0070           0
       401 PROB     11       TRP      HE1      H        0.370000       1.00800           0
       402 PROB     11       TRP      CE2      CPT      0.240000       12.0110           0
       403 PROB     11       TRP      CD2      CPT      0.110000       12.0110           0
       404 PROB     11       TRP      CE3      CAI     -0.250000       12.0110           0
       405 PROB     11       TRP      HE3      HP       0.170000       1.00800           0
       406 PROB     11       TRP      CZ3      CA      -0.200000       12.0110           0
       407 PROB     11       TRP      HZ3      HP       0.140000       1.00800           0
       408 PROB     11       TRP      CZ2      CAI     -0.270000       12.0110           0
       409 PROB     11       TRP      HZ2      HP       0.160000       1.00800           0
       410 PROB     11       TRP      CH2      CA      -0.140000       12.0110           0
       411 PROB     11       TRP      HH2      HP       0.140000       1.00800           0
       412 PROB     11       TRP      C        C        0.510000       12.0110           0
       413 PROB     11       TRP      O        O       -0.510000       15.9994           0
       414 PROB     12       LEU      N        NH1     -0.470000       14.0070           0
       415 PROB     12       LEU      HN       H        0.310000       1.00800           0
       416 PROB     12       LEU      CA       CT1      0.700000E-01   12.0110           0
       417 PROB     12       LEU      HA       HB1      0.900000E-01   1.00800           0
       418 PROB     12       LEU      CB       CT2     -0.180000       12.0110           0
       419 PROB     12       LEU      HB1      HA2      0.900000E-01   1.00800           0
       420 PROB     12       LEU      HB2      HA2      0.900000E-01   1.00800           0
       421 PROB     12       LEU      CG       CT1     -0.900000E-01   12.0110           0
       422 PROB     12       LEU      HG       HA1      0.900000E-01   1.00800           0
       423 PROB     12       LEU      CD1      CT3     -0.270000       12.0110           0
       424 PROB     12       LEU      HD11     HA3      0.900000E-01   1.00800           0
       425 PROB     12       LEU      HD12     HA3      0.900000E-01   1.00800           0
       426 PROB     12       LEU      HD13     HA3      0.900000E-01   1.00800           0
       427 PROB     12       LEU      CD2      CT3     -0.270000       12.0110           0
       428 PROB     12       LEU      HD21     HA3      0.900000E-01   1.00800           0
       429 PROB     12       LEU      HD22     HA3      0.900000E-01   1.00800           0
       430 PROB     12       LEU      HD23     HA3      0.900000E-01   1.00800           0
       431 PROB     12       LEU      C        C        0.510000       12.0110           0
       432 PROB     12       LEU      O        O       -0.510000       15.9994           0
       433 PROB     13       TRP      N        NH1     -0.470000       14.0070           0
       434 PROB     13       TRP      HN       H        0.310000       1.00800           0
       435 PROB     13       TRP      CA       CT1      0.700000E-01   12.0110           0
       436 PROB     13       TRP      HA       HB1      0.900000E-01   1.00800           0
       437 PROB     13       TRP      CB       CT2     -0.180000       12.0110           0
       438 PROB     13       TRP      HB1      HA2      0.900000E-01   1.00800           0
       439 PROB     13       TRP      HB2      HA2      0.900000E-01   1.00800           0
       440 PROB     13       TRP      CG       CY      -0.300000E-01   12.0110           0
       441 PROB     13       TRP      CD1      CA      -0.150000       12.0110           0
       442 PROB     13       TRP      HD1      HP       0.220000       1.00800           0
       443 PROB     13       TRP      NE1      NY      -0.510000       14.0070           0
       444 PROB     13       TRP      HE1      H        0.370000       1.00800           0
       445 PROB     13       TRP      CE2      CPT      0.240000       12.0110           0
       446 PROB     13       TRP      CD2      CPT      0.110000       12.0110           0
       447 PROB     13       TRP      CE3      CAI     -0.250000       12.0110           0
       448 PROB     13       TRP      HE3      HP       0.170000       1.00800           0
       449 PROB     13       TRP      CZ3      CA      -0.200000       12.0110           0
       450 PROB     13       TRP      HZ3      HP       0.140000       1.00800           0
       451 PROB     13       TRP      CZ2      CAI     -0.270000       12.0110           0
       452 PROB     13       TRP      HZ2      HP       0.160000       1.00800           0
       453 PROB     13       TRP      CH2      CA      -0.140000       12.0110           0
       454 PROB     13       TRP      HH2      HP       0.140000       1.00800           0
       455 PROB     13       TRP      C        C        0.510000       12.0110           0
       456 PROB     13       TRP      O        O       -0.510000       15.9994           0
       457 PROB     14       LEU      N        NH1     -0.470000       14.0070           0
       458 PROB     14       LEU      HN       H        0.310000       1.00800           0
       459 PROB     14       LEU      CA       CT1      0.700000E-01   12.0110           0
       460 PROB     14       LEU      HA       HB1      0.900000E-01   1.00800           0
       461 PROB     14       LEU      CB       CT2     -0.180000       12.0110           0
       462 PROB     14       LEU      HB1      HA2      0.900000E-01   1.00800           0
       463 PROB     14       LEU      HB2      HA2      0.900000E-01   1.00800           0
       464 PROB     14       LEU      CG       CT1     -0.900000E-01   12.0110           0
       465 PROB     14       LEU      HG       HA1      0.900000E-01   1.00800           0
       466 PROB     14       LEU      CD1      CT3     -0.270000       12.0110           0
       467 PROB     14       LEU      HD11     HA3      0.900000E-01   1.00800           0
       468 PROB     14       LEU      HD12     HA3      0.900000E-01   1.00800           0
       469 PROB     14       LEU      HD13     HA3      0.900000E-01   1.00800           0
       470 PROB     14       LEU      CD2      CT3     -0.270000       12.0110           0
       471 PROB     14       LEU      HD21     HA3      0.900000E-01   1.00800           0
       472 PROB     14       LEU      HD22     HA3      0.900000E-01   1.00800           0
       473 PROB     14       LEU      HD23     HA3      0.900000E-01   1.00800           0
       474 PROB     14       LEU      C        C        0.510000       12.0110           0
       475 PROB     14       LEU      O        O       -0.510000       15.9994           0
       476 PROB     15       TRP      N        NH1     -0.470000       14.0070           0
       477 PROB     15       TRP      HN       H        0.310000       1.00800           0
       478 PROB     15       TRP      CA       CT1      0.700000E-01   12.0110           0
       479 PROB     15       TRP      HA       HB1      0.900000E-01   1.00800           0
       480 PROB     15       TRP      CB       CT2     -0.180000       12.0110           0
       481 PROB     15       TRP      HB1      HA2      0.900000E-01   1.00800           0
       482 PROB     15       TRP      HB2      HA2      0.900000E-01   1.00800           0
       483 PROB     15       TRP      CG       CY      -0.300000E-01   12.0110           0
       484 PROB     15       TRP      CD1      CA      -0.150000       12.0110           0
       485 PROB     15       TRP      HD1      HP       0.220000       1.00800           0
       486 PROB     15       TRP      NE1      NY      -0.510000       14.0070           0
       487 PROB     15       TRP      HE1      H        0.370000       1.00800           0
       488 PROB     15       TRP      CE2      CPT      0.240000       12.0110           0
       489 PROB     15       TRP      CD2      CPT      0.110000       12.0110           0
       490 PROB     15       TRP      CE3      CAI     -0.250000       12.0110           0
       491 PROB     15       TRP      HE3      HP       0.170000       1.00800           0
       492 PROB     15       TRP      CZ3      CA      -0.200000       12.0110           0
       493 PROB     15       TRP      HZ3      HP       0.140000       1.00800           0
       494 PROB     15       TRP      CZ2      CAI     -0.270000       12.0110           0
       495 PROB     15       TRP      HZ2      HP       0.160000       1.00800           0
       496 PROB     15       TRP      CH2      CA      -0.140000       12.0110           0
       497 PROB     15       TRP      HH2      HP       0.140000       1.00800           0
       498 PROB     15       TRP      C        CC       0.340000       12.0110           0
       499 PROB     15       TRP      OT1      OC      -0.670000       15.9994           0
       500 PROB     15       TRP      OT2      OC      -0.670000       15.9994           0
       501 MEMB     1        DOPC     N        NTL     -0.600000       14.0070           0
       502 MEMB     1        DOPC     C12      CTL2    -0.100000       12.0110           0
       503 MEMB     1        DOPC     H12A     HL       0.250000       1.00800           0
       504 MEMB     1        DOPC     H12B     HL       0.250000       1.00800           0
       505 MEMB     1        DOPC     C13      CTL5    -0.350000       12.0110           0
       506 MEMB     1        DOPC     H13A     HL       0.250000       1.00800           0
       507 MEMB     1        DOPC     H13B     HL       0.250000       1.00800           0
       508 MEMB     1        DOPC     H13C     HL       0.250000       1.00800           0
       509 MEMB     1        DOPC     C14      CTL5    -0.350000       12.0110           0
       510 MEMB     1        DOPC     H14A     HL       0.250000       1.00800           0
       511 MEMB     1        DOPC     H14B     HL       0.250000       1.00800           0
       512 MEMB     1        DOPC     H14C     HL       0.250000       1.00800           0
       513 MEMB     1        DOPC     C15      CTL5    -0.350000       12.0110           0
       514 MEMB     1        DOPC     H15A     HL       0.250000       1.00800           0
       515 MEMB     1        DOPC     H15B     HL       0.250000       1.00800           0
       516 MEMB     1        DOPC     H15C     HL       0.250000       1.00800           0
       517 MEMB     1        DOPC     C11      CTL2    -0.800000E-01   12.0110           0
       518 MEMB     1        DOPC     H11A     HAL2     0.900000E-01   1.00800           0
       519 MEMB     1        DOPC     H11B     HAL2     0.900000E-01   1.00800           0
       520 MEMB     1        DOPC     P        PL        1.50000       30.9740           0
       521 MEMB     1        DOPC     O13      O2L     -0.780000       15.9994           0
       522 MEMB     1        DOPC     O14      O2L     -0.780000       15.9994           0
       523 MEMB     1        DOPC     O12      OSLP    -0.570000       15.9994           0
       524 MEMB     1        DOPC     O11      OSLP    -0.570000       15.9994           0
       525 MEMB     1        DOPC     C1       CTL2    -0.800000E-01   12.0110           0
       526 MEMB     1        DOPC     HA       HAL2     0.900000E-01   1.00800           0
       527 MEMB     1        DOPC     HB       HAL2     0.900000E-01   1.00800           0
       528 MEMB     1        DOPC     C2       CTL1     0.170000       12.0110           0
       529 MEMB     1        DOPC     HS       HAL1     0.900000E-01   1.00800           0
       530 MEMB     1        DOPC     O21      OSL     -0.490000       15.9994           0
       531 MEMB     1        DOPC     C21      CL       0.900000       12.0110           0
       532 MEMB     1        DOPC     O22      OBL     -0.630000       15.9994           0
       533 MEMB     1        DOPC     C22      CTL2    -0.220000       12.0110           0
       534 MEMB     1        DOPC     H2R      HAL2     0.900000E-01   1.00800           0
       535 MEMB     1        DOPC     H2S      HAL2     0.900000E-01   1.00800           0
       536 MEMB     1        DOPC     C3       CTL2     0.800000E-01   12.0110           0
       537 MEMB     1        DOPC     HX       HAL2     0.900000E-01   1.00800           0
       538 MEMB     1        DOPC     HY       HAL2     0.900000E-01   1.00800           0
       539 MEMB     1        DOPC     O31      OSL     -0.490000       15.9994           0
       540 MEMB     1        DOPC     C31      CL       0.900000       12.0110           0
       541 MEMB     1        DOPC     O32      OBL     -0.630000       15.9994           0
       542 MEMB     1        DOPC     C32      CTL2    -0.220000       12.0110           0
       543 MEMB     1        DOPC     H2X      HAL2     0.900000E-01   1.00800           0
       544 MEMB     1        DOPC     H2Y      HAL2     0.900000E-01   1.00800           0
       545 MEMB     1        DOPC     C23      CTL2    -0.180000       12.0110           0
       546 MEMB     1        DOPC     H3R      HAL2     0.900000E-01   1.00800           0
       547 MEMB     1        DOPC     H3S      HAL2     0.900000E-01   1.00800           0
       548 MEMB     1        DOPC     C24      CTL2    -0.180000       12.0110           0
       549 MEMB     1        DOPC     H4R      HAL2     0.900000E-01   1.00800           0
       550 MEMB     1        DOPC     H4S      HAL2     0.900000E-01   1.00800           0
       551 MEMB     1        DOPC     C25      CTL2    -0.180000       12.0110           0
       552 MEMB     1        DOPC     H5R      HAL2     0.900000E-01   1.00800           0
       553 MEMB     1        DOPC     H5S      HAL2     0.900000E-01   1.00800           0
       554 MEMB     1        DOPC     C26      CTL2    -0.180000       12.0110           0
       555 MEMB     1        DOPC     H6R      HAL2     0.900000E-01   1.00800           0
       556 MEMB     1        DOPC     H6S      HAL2     0.900000E-01   1.00800           0
       557 MEMB     1        DOPC     C27      CTL2    -0.180000       12.0110           0
       558 MEMB     1        DOPC     H7R      HAL2     0.900000E-01   1.00800           0
       559 MEMB     1        DOPC     H7S      HAL2     0.900000E-01   1.00800           0
       560 MEMB     1        DOPC     C28      CTL2    -0.180000       12.0110           0
       561 MEMB     1        DOPC     H8R      HAL2     0.900000E-01   1.00800           0
       562 MEMB     1        DOPC     H8S      HAL2     0.900000E-01   1.00800           0
       563 MEMB     1        DOPC     C29      CEL1    -0.150000       12.0110           0
       564 MEMB     1        DOPC     H9R      HEL1     0.150000       1.00800           0
       565 MEMB     1        DOPC     C210     CEL1    -0.150000       12.0110           0
       566 MEMB     1        DOPC     H10R     HEL1     0.150000       1.00800           0
       567 MEMB     1        DOPC     C211     CTL2    -0.180000       12.0110           0
       568 MEMB     1        DOPC     H11R     HAL2     0.900000E-01   1.00800           0
       569 MEMB     1        DOPC     H11S     HAL2     0.900000E-01   1.00800           0
       570 MEMB     1        DOPC     C212     CTL2    -0.180000       12.0110           0
       571 MEMB     1        DOPC     H12R     HAL2     0.900000E-01   1.00800           0
       572 MEMB     1        DOPC     H12S     HAL2     0.900000E-01   1.00800           0
       573 MEMB     1        DOPC     C213     CTL2    -0.180000       12.0110           0
       574 MEMB     1        DOPC     H13R     HAL2     0.900000E-01   1.00800           0
       575 MEMB     1        DOPC     H13S     HAL2     0.900000E-01   1.00800           0
       576 MEMB     1        DOPC     C214     CTL2    -0.180000       12.0110           0
       577 MEMB     1        DOPC     H14R     HAL2     0.900000E-01   1.00800           0
       578 MEMB     1        DOPC     H14S     HAL2     0.900000E-01   1.00800           0
       579 MEMB     1        DOPC     C215     CTL2    -0.180000       12.0110           0
       580 MEMB     1        DOPC     H15R     HAL2     0.900000E-01   1.00800           0
       581 MEMB     1        DOPC     H15S     HAL2     0.900000E-01   1.00800           0
       582 MEMB     1        DOPC     C216     CTL2    -0.180000       12.0110           0
       583 MEMB     1        DOPC     H16R     HAL2     0.900000E-01   1.00800           0
       584 MEMB     1        DOPC     H16S     HAL2     0.900000E-01   1.00800           0
       585 MEMB     1        DOPC     C217     CTL2    -0.180000       12.0110           0
       586 MEMB     1        DOPC     H17R     HAL2     0.900000E-01   1.00800           0
       587 MEMB     1        DOPC     H17S     HAL2     0.900000E-01   1.00800           0
       588 MEMB     1        DOPC     C218     CTL3    -0.270000       12.0110           0
       589 MEMB     1        DOPC     H18R     HAL3     0.900000E-01   1.00800           0
       590 MEMB     1        DOPC     H18S     HAL3     0.900000E-01   1.00800           0
       591 MEMB     1        DOPC     H18T     HAL3     0.900000E-01   1.00800           0
       592 MEMB     1        DOPC     C33      CTL2    -0.180000       12.0110           0
       593 MEMB     1        DOPC     H3X      HAL2     0.900000E-01   1.00800           0
       594 MEMB     1        DOPC     H3Y      HAL2     0.900000E-01   1.00800           0
       595 MEMB     1        DOPC     C34      CTL2    -0.180000       12.0110           0
       596 MEMB     1        DOPC     H4X      HAL2     0.900000E-01   1.00800           0
       597 MEMB     1        DOPC     H4Y      HAL2     0.900000E-01   1.00800           0
       598 MEMB     1        DOPC     C35      CTL2    -0.180000       12.0110           0
       599 MEMB     1        DOPC     H5X      HAL2     0.900000E-01   1.00800           0
       600 MEMB     1        DOPC     H5Y      HAL2     0.900000E-01   1.00800           0
       601 MEMB     1        DOPC     C36      CTL2    -0.180000       12.0110           0
       602 MEMB     1        DOPC     H6X      HAL2     0.900000E-01   1.00800           0
       603 MEMB     1        DOPC     H6Y      HAL2     0.900000E-01   1.00800           0
       604 MEMB     1        DOPC     C37      CTL2    -0.180000       12.0110           0
       605 MEMB     1        DOPC     H7X      HAL2     0.900000E-01   1.00800           0
       606 MEMB     1        DOPC     H7Y      HAL2     0.900000E-01   1.00800           0
       607 MEMB     1        DOPC     C38      CTL2    -0.180000       12.0110           0
       608 MEMB     1        DOPC     H8X      HAL2     0.900000E-01   1.00800           0
       609 MEMB     1        DOPC     H8Y      HAL2     0.900000E-01   1.00800           0
       610 MEMB     1        DOPC     C39      CEL1    -0.150000       12.0110           0
       611 MEMB     1        DOPC     H9X      HEL1     0.150000       1.00800           0
       612 MEMB     1        DOPC     C310     CEL1    -0.150000       12.0110           0
       613 MEMB     1        DOPC     H10X     HEL1     0.150000       1.00800           0
       614 MEMB     1        DOPC     C311     CTL2    -0.180000       12.0110           0
       615 MEMB     1        DOPC     H11X     HAL2     0.900000E-01   1.00800           0
       616 MEMB     1        DOPC     H11Y     HAL2     0.900000E-01   1.00800           0
       617 MEMB     1        DOPC     C312     CTL2    -0.180000       12.0110           0
       618 MEMB     1        DOPC     H12X     HAL2     0.900000E-01   1.00800           0
       619 MEMB     1        DOPC     H12Y     HAL2     0.900000E-01   1.00800           0
       620 MEMB     1        DOPC     C313     CTL2    -0.180000       12.0110           0
       621 MEMB     1        DOPC     H13X     HAL2     0.900000E-01   1.00800           0
       622 MEMB     1        DOPC     H13Y     HAL2     0.900000E-01   1.00800           0
       623 MEMB     1        DOPC     C314     CTL2    -0.180000       12.0110           0
       624 MEMB     1        DOPC     H14X     HAL2     0.900000E-01   1.00800           0
       625 MEMB     1        DOPC     H14Y     HAL2     0.900000E-01   1.00800           0
       626 MEMB     1        DOPC     C315     CTL2    -0.180000       12.0110           0
       627 MEMB     1        DOPC     H15X     HAL2     0.900000E-01   1.00800           0
       628 MEMB     1        DOPC     H15Y     HAL2     0.900000E-01   1.00800           0
       629 MEMB     1        DOPC     C316     CTL2    -0.180000       12.0110           0
       630 MEMB     1        DOPC     H16X     HAL2     0.900000E-01   1.00800           0
       631 MEMB     1        DOPC     H16Y     HAL2     0.900000E-01   1.00800           0
       632 MEMB     1        DOPC     C317     CTL2    -0.180000       12.0110           0
       633 MEMB     1        DOPC     H17X     HAL2     0.900000E-01   1.00800           0
       634 MEMB     1        DOPC     H17Y     HAL2     0.900000E-01   1.00800           0
       635 MEMB     1        DOPC     C318     CTL3    -0.270000       12.0110           0
       636 MEMB     1        DOPC     H18X     HAL3     0.900000E-01   1.00800           0
       637 MEMB     1        DOPC     H18Y     HAL3     0.900000E-01   1.00800           0
       638 MEMB     1        DOPC     H18Z     HAL3     0.900000E-01   1.00800           0
       639 MEMB     2        DOPC     N        NTL     -0.600000       14.0070           0
       640 MEMB     2        DOPC     C12      CTL2    -0.100000       12.0110           0
       641 MEMB     2        DOPC     H12A     HL       0.250000       1.00800           0
       642 MEMB     2        DOPC     H12B     HL       0.250000       1.00800           0
       643 MEMB     2        DOPC     C13      CTL5    -0.350000       12.0110           0
       644 MEMB     2        DOPC     H13A     HL       0.250000       1.00800           0
       645 MEMB     2        DOPC     H13B     HL       0.250000       1.00800           0
       646 MEMB     2        DOPC     H13C     HL       0.250000       1.00800           0
       647 MEMB     2        DOPC     C14      CTL5    -0.350000       12.0110           0
       648 MEMB     2        DOPC     H14A     HL       0.250000       1.00800           0
       649 MEMB     2        DOPC     H14B     HL       0.250000       1.00800           0
       650 MEMB     2        DOPC     H14C     HL       0.250000       1.00800           0
       651 MEMB     2        DOPC     C15      CTL5    -0.350000       12.0110           0
       652 MEMB     2        DOPC     H15A     HL       0.250000       1.00800           0
       653 MEMB     2        DOPC     H15B     HL       0.250000       1.00800           0
       654 MEMB     2        DOPC     H15C     HL       0.250000       1.00800           0
       655 MEMB     2        DOPC     C11      CTL2    -0.800000E-01   12.0110           0
       656 MEMB     2        DOPC     H11A     HAL2     0.900000E-01   1.00800           0
       657 MEMB     2        DOPC     H11B     HAL2     0.900000E-01   1.00800           0
       658 MEMB     2        DOPC     P        PL        1.50000       30.9740           0
       659 MEMB     2        DOPC     O13      O2L     -0.780000       15.9994           0
       660 MEMB     2        DOPC     O14      O2L     -0.780000       15.9994           0
       661 MEMB     2        DOPC     O12      OSLP    -0.570000       15.9994           0
       662 MEMB     2        DOPC     O11      OSLP    -0.570000       15.9994           0
       663 MEMB     2        DOPC     C1       CTL2    -0.800000E-01   12.0110           0
       664 MEMB     2        DOPC     HA       HAL2     0.900000E-01   1.00800           0
       665 MEMB     2        DOPC     HB       HAL2     0.900000E-01   1.00800           0
       666 MEMB     2        DOPC     C2       CTL1     0.170000       12.0110           0
       667 MEMB     2        DOPC     HS       HAL1     0.900000E-01   1.00800           0
       668 MEMB     2        DOPC     O21      OSL     -0.490000       15.9994           0
       669 MEMB     2        DOPC     C21      CL       0.900000       12.0110           0
       670 MEMB     2        DOPC     O22      OBL     -0.630000       15.9994           0
       671 MEMB     2        DOPC     C22      CTL2    -0.220000       12.0110           0
       672 MEMB     2        DOPC     H2R      HAL2     0.900000E-01   1.00800           0
       673 MEMB     2        DOPC     H2S      HAL2     0.900000E-01   1.00800           0
       674 MEMB     2        DOPC     C3       CTL2     0.800000E-01   12.0110           0
       675 MEMB     2        DOPC     HX       HAL2     0.900000E-01   1.00800           0
       676 MEMB     2        DOPC     HY       HAL2     0.900000E-01   1.00800           0
       677 MEMB     2        DOPC     O31      OSL     -0.490000       15.9994           0
       678 MEMB     2        DOPC     C31      CL       0.900000       12.0110           0
       679 MEMB     2        DOPC     O32      OBL     -0.630000       15.9994           0
       680 MEMB     2        DOPC     C32      CTL2    -0.220000       12.0110           0
       681 MEMB     2        DOPC     H2X      HAL2     0.900000E-01   1.00800           0
       682 MEMB     2        DOPC     H2Y      HAL2     0.900000E-01   1.00800           0
       683 MEMB     2        DOPC     C23      CTL2    -0.180000       12.0110           0
       684 MEMB     2        DOPC     H3R      HAL2     0.900000E-01   1.00800           0
       685 MEMB     2        DOPC     H3S      HAL2     0.900000E-01   1.00800           0
       686 MEMB     2        DOPC     C24      CTL2    -0.180000       12.0110           0
       687 MEMB     2        DOPC     H4R      HAL2     0.900000E-01   1.00800           0
       688 MEMB     2        DOPC     H4S      HAL2     0.900000E-01   1.00800           0
       689 MEMB     2        DOPC     C25      CTL2    -0.180000       12.0110           0
       690 MEMB     2        DOPC     H5R      HAL2     0.900000E-01   1.00800           0
       691 MEMB     2        DOPC     H5S      HAL2     0.900000E-01   1.00800           0
       692 MEMB     2        DOPC     C26      CTL2    -0.180000       12.0110           0
       693 MEMB     2        DOPC     H6R      HAL2     0.900000E-01   1.00800           0
       694 MEMB     2        DOPC     H6S      HAL2     0.900000E-01   1.00800           0
       695 MEMB     2        DOPC     C27      CTL2    -0.180000       12.0110           0
       696 MEMB     2        DOPC     H7R      HAL2     0.900000E-01   1.00800           0
       697 MEMB     2        DOPC     H7S      HAL2     0.900000E-01   1.00800           0
       698 MEMB     2        DOPC     C28      CTL2    -0.180000       12.0110           0
       699 MEMB     2        DOPC     H8R      HAL2     0.900000E-01   1.00800           0
       700 MEMB     2        DOPC     H8S      HAL2     0.900000E-01   1.00800           0
       701 MEMB     2        DOPC     C29      CEL1    -0.150000       12.0110           0
       702 MEMB     2        DOPC     H9R      HEL1     0.150000       1.00800           0
       703 MEMB     2        DOPC     C210     CEL1    -0.150000       12.0110           0
       704 MEMB     2        DOPC     H10R     HEL1     0.150000       1.00800           0
       705 MEMB     2        DOPC     C211     CTL2    -0.180000       12.0110           0
       706 MEMB     2        DOPC     H11R     HAL2     0.900000E-01   1.00800           0
       707 MEMB     2        DOPC     H11S     HAL2     0.900000E-01   1.00800           0
       708 MEMB     2        DOPC     C212     CTL2    -0.180000       12.0110           0
       709 MEMB     2        DOPC     H12R     HAL2     0.900000E-01   1.00800           0
       710 MEMB     2        DOPC     H12S     HAL2     0.900000E-01   1.00800           0
       711 MEMB     2        DOPC     C213     CTL2    -0.180000       12.0110           0
       712 MEMB     2        DOPC     H13R     HAL2     0.900000E-01   1.00800           0
       713 MEMB     2        DOPC     H13S     HAL2     0.900000E-01   1.00800           0
       714 MEMB     2        DOPC     C214     CTL2    -0.180000       12.0110           0
       715 MEMB     2        DOPC     H14R     HAL2     0.900000E-01   1.00800           0
       716 MEMB     2        DOPC     H14S     HAL2     0.900000E-01   1.00800           0
       717 MEMB     2        DOPC     C215     CTL2    -0.180000       12.0110           0
       718 MEMB     2        DOPC     H15R     HAL2     0.900000E-01   1.00800           0
       719 MEMB     2        DOPC     H15S     HAL2     0.900000E-01   1.00800           0
       720 MEMB     2        DOPC     C216     CTL2    -0.180000       12.0110           0
       721 MEMB     2        DOPC     H16R     HAL2     0.900000E-01   1.00800           0
       722 MEMB     2        DOPC     H16S     HAL2     0.900000E-01   1.00800           0
       723 MEMB     2        DOPC     C217     CTL2    -0.180000       12.0110           0
       724 MEMB     2        DOPC     H17R     HAL2     0.900000E-01   1.00800           0
       725 MEMB     2        DOPC     H17S     HAL2     0.900000E-01   1.00800           0
       726 MEMB     2        DOPC     C218     CTL3    -0.270000       12.0110           0
       727 MEMB     2        DOPC     H18R     HAL3     0.900000E-01   1.00800           0
       728 MEMB     2        DOPC     H18S     HAL3     0.900000E-01   1.00800           0
       729 MEMB     2        DOPC     H18T     HAL3     0.900000E-01   1.00800           0
       730 MEMB     2        DOPC     C33      CTL2    -0.180000       12.0110           0
       731 MEMB     2        DOPC     H3X      HAL2     0.900000E-01   1.00800           0
       732 MEMB     2        DOPC     H3Y      HAL2     0.900000E-01   1.00800           0
       733 MEMB     2        DOPC     C34      CTL2    -0.180000       12.0110           0
       734 MEMB     2        DOPC     H4X      HAL2     0.900000E-01   1.00800           0
       735 MEMB     2        DOPC     H4Y      HAL2     0.900000E-01   1.00800           0
       736 MEMB     2        DOPC     C35      CTL2    -0.180000       12.0110           0
       737 MEMB     2        DOPC     H5X      HAL2     0.900000E-01   1.00800           0
       738 MEMB     2        DOPC     H5Y      HAL2     0.900000E-01   1.00800           0
       739 MEMB     2        DOPC     C36      CTL2    -0.180000       12.0110           0
       740 MEMB     2        DOPC     H6X      HAL2     0.900000E-01   1.00800           0
       741 MEMB     2        DOPC     H6Y      HAL2     0.900000E-01   1.00800           0
       742 MEMB     2        DOPC     C37      CTL2    -0.180000       12.0110           0
       743 MEMB     2        DOPC     H7X      HAL2     0.900000E-01   1.00800           0
       744 MEMB     2        DOPC     H7Y      HAL2     0.900000E-01   1.00800           0
       745 MEMB     2        DOPC     C38      CTL2    -0.180000       12.0110           0
       746 MEMB     2        DOPC     H8X      HAL2     0.900000E-01   1.00800           0
       747 MEMB     2        DOPC     H8Y      HAL2     0.900000E-01   1.00800           0
       748 MEMB     2        DOPC     C39      CEL1    -0.150000       12.0110           0
       749 MEMB     2        DOPC     H9X      HEL1     0.150000       1.00800           0
       750 MEMB     2        DOPC     C310     CEL1    -0.150000       12.0110           0
       751 MEMB     2        DOPC     H10X     HEL1     0.150000       1.00800           0
       752 MEMB     2        DOPC     C311     CTL2    -0.180000       12.0110           0
       753 MEMB     2        DOPC     H11X     HAL2     0.900000E-01   1.00800           0
       754 MEMB     2        DOPC     H11Y     HAL2     0.900000E-01   1.00800           0
       755 MEMB     2        DOPC     C312     CTL2    -0.180000       12.0110           0
       756 MEMB     2        DOPC     H12X     HAL2     0.900000E-01   1.00800           0
       757 MEMB     2        DOPC     H12Y     HAL2     0.900000E-01   1.00800           0
       758 MEMB     2        DOPC     C313     CTL2    -0.180000       12.0110           0
       759 MEMB     2        DOPC     H13X     HAL2     0.900000E-01   1.00800           0
       760 MEMB     2        DOPC     H13Y     HAL2     0.900000E-01   1.00800           0
       761 MEMB     2        DOPC     C314     CTL2    -0.180000       12.0110           0
       762 MEMB     2        DOPC     H14X     HAL2     0.900000E-01   1.00800           0
       763 MEMB     2        DOPC     H14Y     HAL2     0.900000E-01   1.00800           0
       764 MEMB     2        DOPC     C315     CTL2    -0.180000       12.0110           0
       765 MEMB     2        DOPC     H15X     HAL2     0.900000E-01   1.00800           0
       766 MEMB     2        DOPC     H15Y     HAL2     0.900000E-01   1.00800           0
       767 MEMB     2        DOPC     C316     CTL2    -0.180000       12.0110           0
       768 MEMB     2        DOPC     H16X     HAL2     0.900000E-01   1.00800           0
       769 MEMB     2        DOPC     H16Y     HAL2     0.900000E-01   1.00800           0
       770 MEMB     2        DOPC     C317     CTL2    -0.180000       12.0110           0
       771 MEMB     2        DOPC     H17X     HAL2     0.900000E-01   1.00800           0
       772 MEMB     2        DOPC     H17Y     HAL2     0.900000E-01   1.00800           0
       773 MEMB     2        DOPC     C318     CTL3    -0.270000       12.0110           0
       774 MEMB     2        DOPC     H18X     HAL3     0.900000E-01   1.00800           0
       775 MEMB     2        DOPC     H18Y     HAL3     0.900000E-01   1.00800           0
       776 MEMB     2        DOPC     H18Z     HAL3     0.900000E-01   1.00800           0
       777 MEMB     3        DOPC     N        NTL     -0.600000       14.0070           0
       778 MEMB     3        DOPC     C12      CTL2    -0.100000       12.0110           0
       779 MEMB     3        DOPC     H12A     HL       0.250000       1.00800           0
       780 MEMB     3        DOPC     H12B     HL       0.250000       1.00800           0
       781 MEMB     3        DOPC     C13      CTL5    -0.350000       12.0110           0
       782 MEMB     3        DOPC     H13A     HL       0.250000       1.00800           0
       783 MEMB     3        DOPC     H13B     HL       0.250000       1.00800           0
       784 MEMB     3        DOPC     H13C     HL       0.250000       1.00800           0
       785 MEMB     3        DOPC     C14      CTL5    -0.350000       12.0110           0
       786 MEMB     3        DOPC     H14A     HL       0.250000       1.00800           0
       787 MEMB     3        DOPC     H14B     HL       0.250000       1.00800           0
       788 MEMB     3        DOPC     H14C     HL       0.250000       1.00800           0
       789 MEMB     3        DOPC     C15      CTL5    -0.350000       12.0110           0
       790 MEMB     3        DOPC     H15A     HL       0.250000       1.00800           0
       791 MEMB     3        DOPC     H15B     HL       0.250000       1.00800           0
       792 MEMB     3        DOPC     H15C     HL       0.250000       1.00800           0
       793 MEMB     3        DOPC     C11      CTL2    -0.800000E-01   12.0110           0
       794 MEMB     3        DOPC     H11A     HAL2     0.900000E-01   1.00800           0
       795 MEMB     3        DOPC     H11B     HAL2     0.900000E-01   1.00800           0
       796 MEMB     3        DOPC     P        PL        1.50000       30.9740           0
       797 MEMB     3        DOPC     O13      O2L     -0.780000       15.9994           0
       798 MEMB     3        DOPC     O14      O2L     -0.780000       15.9994           0
       799 MEMB     3        DOPC     O12      OSLP    -0.570000       15.9994           0
       800 MEMB     3        DOPC     O11      OSLP    -0.570000       15.9994           0
       801 MEMB     3        DOPC     C1       CTL2    -0.800000E-01   12.0110           0
       802 MEMB     3        DOPC     HA       HAL2     0.900000E-01   1.00800           0
       803 MEMB     3        DOPC     HB       HAL2     0.900000E-01   1.00800           0
       804 MEMB     3        DOPC     C2       CTL1     0.170000       12.0110           0
       805 MEMB     3        DOPC     HS       HAL1     0.900000E-01   1.00800           0
       806 MEMB     3        DOPC     O21      OSL     -0.490000       15.9994           0
       807 MEMB     3        DOPC     C21      CL       0.900000       12.0110           0
       808 MEMB     3        DOPC     O22      OBL     -0.630000       15.9994           0
       809 MEMB     3        DOPC     C22      CTL2    -0.220000       12.0110           0
       810 MEMB     3        DOPC     H2R      HAL2     0.900000E-01   1.00800           0
       811 MEMB     3        DOPC     H2S      HAL2     0.900000E-01   1.00800           0
       812 MEMB     3        DOPC     C3       CTL2     0.800000E-01   12.0110           0
       813 MEMB     3        DOPC     HX       HAL2     0.900000E-01   1.00800           0
       814 MEMB     3        DOPC     HY       HAL2     0.900000E-01   1.00800           0
       815 MEMB     3        DOPC     O31      OSL     -0.490000       15.9994           0
       816 MEMB     3        DOPC     C31      CL       0.900000       12.0110           0
       817 MEMB     3        DOPC     O32      OBL     -0.630000       15.9994           0
       818 MEMB     3        DOPC     C32      CTL2    -0.220000       12.0110           0
       819 MEMB     3        DOPC     H2X      HAL2     0.900000E-01   1.00800           0
       820 MEMB     3        DOPC     H2Y      HAL2     0.900000E-01   1.00800           0
       821 MEMB     3        DOPC     C23      CTL2    -0.180000       12.0110           0
       822 MEMB     3        DOPC     H3R      HAL2     0.900000E-01   1.00800           0
       823 MEMB     3        DOPC     H3S      HAL2     0.900000E-01   1.00800           0
       824 MEMB     3        DOPC     C24      CTL2    -0.180000       12.0110           0
       825 MEMB     3        DOPC     H4R      HAL2     0.900000E-01   1.00800           0
       826 MEMB     3        DOPC     H4S      HAL2     0.900000E-01   1.00800           0
       827 MEMB     3        DOPC     C25      CTL2    -0.180000       12.0110           0
       828 MEMB     3        DOPC     H5R      HAL2     0.900000E-01   1.00800           0
       829 MEMB     3        DOPC     H5S      HAL2     0.900000E-01   1.00800           0
       830 MEMB     3        DOPC     C26      CTL2    -0.180000       12.0110           0
       831 MEMB     3        DOPC     H6R      HAL2     0.900000E-01   1.00800           0
       832 MEMB     3        DOPC     H6S      HAL2     0.900000E-01   1.00800           0
       833 MEMB     3        DOPC     C27      CTL2    -0.180000       12.0110           0
       834 MEMB     3        DOPC     H7R      HAL2     0.900000E-01   1.00800           0
       835 MEMB     3        DOPC     H7S      HAL2     0.900000E-01   1.00800           0
       836 MEMB     3        DOPC     C28      CTL2    -0.180000       12.0110           0
       837 MEMB     3        DOPC     H8R      HAL2     0.900000E-01   1.00800           0
       838 MEMB     3        DOPC     H8S      HAL2     0.900000E-01   1.00800           0
       839 MEMB     3        DOPC     C29      CEL1    -0.150000       12.0110           0
       840 MEMB     3        DOPC     H9R      HEL1     0.150000       1.00800           0
       841 MEMB     3        DOPC     C210     CEL1    -0.150000       12.0110           0
       842 MEMB     3        DOPC     H10R     HEL1     0.150000       1.00800           0
       843 MEMB     3        DOPC     C211     CTL2    -0.180000       12.0110           0
       844 MEMB     3        DOPC     H11R     HAL2     0.900000E-01   1.00800           0
       845 MEMB     3        DOPC     H11S     HAL2     0.900000E-01   1.00800           0
       846 MEMB     3        DOPC     C212     CTL2    -0.180000       12.0110           0
       847 MEMB     3        DOPC     H12R     HAL2     0.900000E-01   1.00800           0
       848 MEMB     3        DOPC     H12S     HAL2     0.900000E-01   1.00800           0
       849 MEMB     3        DOPC     C213     CTL2    -0.180000       12.0110           0
       850 MEMB     3        DOPC     H13R     HAL2     0.900000E-01   1.00800           0
       851 MEMB     3        DOPC     H13S     HAL2     0.900000E-01   1.00800           0
       852 MEMB     3        DOPC     C214     CTL2    -0.180000       12.0110           0
       853 MEMB     3        DOPC     H14R     HAL2     0.900000E-01   1.00800           0
       854 MEMB     3        DOPC     H14S     HAL2     0.900000E-01   1.00800           0
       855 MEMB     3        DOPC     C215     CTL2    -0.180000       12.0110           0
       856 MEMB     3        DOPC     H15R     HAL2     0.900000E-01   1.00800           0
       857 MEMB     3        DOPC     H15S     HAL2     0.900000E-01   1.00800           0
       858 MEMB     3        DOPC     C216     CTL2    -0.180000       12.0110           0
       859 MEMB     3        DOPC     H16R     HAL2     0.900000E-01   1.00800           0
       860 MEMB     3        DOPC     H16S     HAL2     0.900000E-01   1.00800           0
       861 MEMB     3        DOPC     C217     CTL2    -0.180000       12.0110           0
       862 MEMB     3        DOPC     H17R     HAL2     0.900000E-01   1.00800           0
       863 MEMB     3        DOPC     H17S     HAL2     0.900000E-01   1.00800           0
       864 MEMB     3        DOPC     C218     CTL3    -0.270000       12.0110           0
       865 MEMB     3        DOPC     H18R     HAL3     0.900000E-01   1.00800           0
       866 MEMB     3        DOPC     H18S     HAL3     0.900000E-01   1.00800           0
       867 MEMB     3        DOPC     H18T     HAL3     0.900000E-01   1.00800           0
       868 MEMB     3        DOPC     C33      CTL2    -0.180000       12.0110           0
       869 MEMB     3        DOPC     H3X      HAL2     0.900000E-01   1.00800           0
       870 MEMB     3        DOPC     H3Y      HAL2     0.900000E-01   1.00800           0
       871 MEMB     3        DOPC     C34      CTL2    -0.180000       12.0110           0
       872 MEMB     3        DOPC     H4X      HAL2     0.900000E-01   1.00800           0
       873 MEMB     3        DOPC     H4Y      HAL2     0.900000E-01   1.00800           0
       874 MEMB     3        DOPC     C35      CTL2    -0.180000       12.0110           0
       875 MEMB     3        DOPC     H5X      HAL2     0.900000E-01   1.00800           0
       876 MEMB     3        DOPC     H5Y      HAL2     0.900000E-01   1.00800           0
       877 MEMB     3        DOPC     C36      CTL2    -0.180000       12.0110           0
       878 MEMB     3        DOPC     H6X      HAL2     0.900000E-01   1.00800           0
       879 MEMB     3        DOPC     H6Y      HAL2     0.900000E-01   1.00800           0
       880 MEMB     3        DOPC     C37      CTL2    -0.180000       12.0110           0
       881 MEMB     3        DOPC     H7X      HAL2     0.900000E-01   1.00800           0
       882 MEMB     3        DOPC     H7Y      HAL2     0.900000E-01   1.00800           0
       883 MEMB     3        DOPC     C38      CTL2    -0.180000       12.0110           0
       884 MEMB     3        DOPC     H8X      HAL2     0.900000E-01   1.00800           0
       885 MEMB     3        DOPC     H8Y      HAL2     0.900000E-01   1.00800           0
       886 MEMB     3        DOPC     C39      CEL1    -0.150000       12.0110           0
       887 MEMB     3        DOPC     H9X      HEL1     0.150000       1.00800           0
       888 MEMB     3        DOPC     C310     CEL1    -0.150000       12.0110           0
       889 MEMB     3        DOPC     H10X     HEL1     0.150000       1.00800           0
       890 MEMB     3        DOPC     C311     CTL2    -0.180000       12.0110           0
       891 MEMB     3        DOPC     H11X     HAL2     0.900000E-01   1.00800           0
       892 MEMB     3        DOPC     H11Y     HAL2     0.900000E-01   1.00800           0
       893 MEMB     3        DOPC     C312     CTL2    -0.180000       12.0110           0
       894 MEMB     3        DOPC     H12X     HAL2     0.900000E-01   1.00800           0
       895 MEMB     3        DOPC     H12Y     HAL2     0.900000E-01   1.00800           0
       896 MEMB     3        DOPC     C313     CTL2    -0.180000       12.0110           0
       897 MEMB     3        DOPC     H13X     HAL2     0.900000E-01   1.00800           0
       898 MEMB     3        DOPC     H13Y     HAL2     0.900000E-01   1.00800           0
       899 MEMB     3        DOPC     C314     CTL2    -0.180000       12.0110           0
       900 MEMB     3        DOPC     H14X     HAL2     0.900000E-01   1.00800           0
       901 MEMB     3        DOPC     H14Y     HAL2     0.900000E-01   1.00800           0
       902 MEMB     3        DOPC     C315     CTL2    -0.180000       12.0110           0
       903 MEMB     3        DOPC     H15X     HAL2     0.900000E-01   1.00800           0
       904 MEMB     3        DOPC     H15Y     HAL2     0.900000E-01   1.00800           0
       905 MEMB     3        DOPC     C316     CTL2    -0.180000       12.0110           0
       906 MEMB     3        DOPC     H16X     HAL2     0.900000E-01   1.00800           0
       907 MEMB     3        DOPC     H16Y     HAL2     0.900000E-01   1.00800           0
       908 MEMB     3        DOPC     C317     CTL2    -0.180000       12.0110           0
       909 MEMB     3        DOPC     H17X     HAL2     0.900000E-01   1.00800           0
       910 MEMB     3        DOPC     H17Y     HAL2     0.900000E-01   1.00800           0
       911 MEMB     3        DOPC     C318     CTL3    -0.270000       12.0110           0
       912 MEMB     3        DOPC     H18X     HAL3     0.900000E-01   1.00800           0
       913 MEMB     3        DOPC     H18Y     HAL3     0.900000E-01   1.00800           0
       914 MEMB     3        DOPC     H18Z     HAL3     0.900000E-01   1.00800           0
       915 MEMB     4        DOPC     N        NTL     -0.600000       14.0070           0
       916 MEMB     4        DOPC     C12      CTL2    -0.100000       12.0110           0
       917 MEMB     4        DOPC     H12A     HL       0.250000       1.00800           0
       918 MEMB     4        DOPC     H12B     HL       0.250000       1.00800           0
       919 MEMB     4        DOPC     C13      CTL5    -0.350000       12.0110           0
       920 MEMB     4        DOPC     H13A     HL       0.250000       1.00800           0
       921 MEMB     4        DOPC     H13B     HL       0.250000       1.00800           0
       922 MEMB     4        DOPC     H13C     HL       0.250000       1.00800           0
       923 MEMB     4        DOPC     C14      CTL5    -0.350000       12.0110           0
       924 MEMB     4        DOPC     H14A     HL       0.250000       1.00800           0
       925 MEMB     4        DOPC     H14B     HL       0.250000       1.00800           0
       926 MEMB     4        DOPC     H14C     HL       0.250000       1.00800           0
       927 MEMB     4        DOPC     C15      CTL5    -0.350000       12.0110           0
       928 MEMB     4        DOPC     H15A     HL       0.250000       1.00800           0
       929 MEMB     4        DOPC     H15B     HL       0.250000       1.00800           0
       930 MEMB     4        DOPC     H15C     HL       0.250000       1.00800           0
       931 MEMB     4        DOPC     C11      CTL2    -0.800000E-01   12.0110           0
       932 MEMB     4        DOPC     H11A     HAL2     0.900000E-01   1.00800           0
       933 MEMB     4        DOPC     H11B     HAL2     0.900000E-01   1.00800           0
       934 MEMB     4        DOPC     P        PL        1.50000       30.9740           0
       935 MEMB     4        DOPC     O13      O2L     -0.780000       15.9994           0
       936 MEMB     4        DOPC     O14      O2L     -0.780000       15.9994           0
       937 MEMB     4        DOPC     O12      OSLP    -0.570000       15.9994           0
       938 MEMB     4        DOPC     O11      OSLP    -0.570000       15.9994           0
       939 MEMB     4        DOPC     C1       CTL2    -0.800000E-01   12.0110           0
       940 MEMB     4        DOPC     HA       HAL2     0.900000E-01   1.00800           0
       941 MEMB     4        DOPC     HB       HAL2     0.900000E-01   1.00800           0
       942 MEMB     4        DOPC     C2       CTL1     0.170000       12.0110           0
       943 MEMB     4        DOPC     HS       HAL1     0.900000E-01   1.00800           0
       944 MEMB     4        DOPC     O21      OSL     -0.490000       15.9994           0
       945 MEMB     4        DOPC     C21      CL       0.900000       12.0110           0
       946 MEMB     4        DOPC     O22      OBL     -0.630000       15.9994           0
       947 MEMB     4        DOPC     C22      CTL2    -0.220000       12.0110           0
       948 MEMB     4        DOPC     H2R      HAL2     0.900000E-01   1.00800           0
       949 MEMB     4        DOPC     H2S      HAL2     0.900000E-01   1.00800           0
       950 MEMB     4        DOPC     C3       CTL2     0.800000E-01   12.0110           0
       951 MEMB     4        DOPC     HX       HAL2     0.900000E-01   1.00800           0
       952 MEMB     4        DOPC     HY       HAL2     0.900000E-01   1.00800           0
       953 MEMB     4        DOPC     O31      OSL     -0.490000       15.9994           0
       954 MEMB     4        DOPC     C31      CL       0.900000       12.0110           0
       955 MEMB     4        DOPC     O32      OBL     -0.630000       15.9994           0
       956 MEMB     4        DOPC     C32      CTL2    -0.220000       12.0110           0
       957 MEMB     4        DOPC     H2X      HAL2     0.900000E-01   1.00800           0
       958 MEMB     4        DOPC     H2Y      HAL2     0.900000E-01   1.00800           0
       959 MEMB     4        DOPC     C23      CTL2    -0.180000       12.0110           0
       960 MEMB     4        DOPC     H3R      HAL2     0.900000E-01   1.00800           0
       961 MEMB     4        DOPC     H3S      HAL2     0.900000E-01   1.00800           0
       962 MEMB     4        DOPC     C24      CTL2    -0.180000       12.0110           0
       963 MEMB     4        DOPC     H4R      HAL2     0.900000E-01   1.00800           0
       964 MEMB     4        DOPC     H4S      HAL2     0.900000E-01   1.00800           0
       965 MEMB     4        DOPC     C25      CTL2    -0.180000       12.0110           0
       966 MEMB     4        DOPC     H5R      HAL2     0.900000E-01   1.00800           0
       967 MEMB     4        DOPC     H5S      HAL2     0.900000E-01   1.00800           0
       968 MEMB     4        DOPC     C26      CTL2    -0.180000       12.0110           0
       969 MEMB     4        DOPC     H6R      HAL2     0.900000E-01   1.00800           0
       970 MEMB     4        DOPC     H6S      HAL2     0.900000E-01   1.00800           0
       971 MEMB     4        DOPC     C27      CTL2    -0.180000       12.0110           0
       972 MEMB     4        DOPC     H7R      HAL2     0.900000E-01   1.00800           0
       973 MEMB     4        DOPC     H7S      HAL2     0.900000E-01   1.00800           0
       974 MEMB     4        DOPC     C28      CTL2    -0.180000       12.0110           0
       975 MEMB     4        DOPC     H8R      HAL2     0.900000E-01   1.00800           0
       976 MEMB     4        DOPC     H8S      HAL2     0.900000E-01   1.00800           0
       977 MEMB     4        DOPC     C29      CEL1    -0.150000       12.0110           0
       978 MEMB     4        DOPC     H9R      HEL1     0.150000       1.00800           0
       979 MEMB     4        DOPC     C210     CEL1    -0.150000       12.0110           0
       980 MEMB     4        DOPC     H10R     HEL1     0.150000       1.00800           0
       981 MEMB     4        DOPC     C211     CTL2    -0.180000       12.0110           0
       982 MEMB     4        DOPC     H11R     HAL2     0.900000E-01   1.00800           0
       983 MEMB     4        DOPC     H11S     HAL2     0.900000E-01   1.00800           0
       984 MEMB     4        DOPC     C212     CTL2    -0.180000       12.0110           0
       985 MEMB     4        DOPC     H12R     HAL2     0.900000E-01   1.00800           0
       986 MEMB     4        DOPC     H12S     HAL2     0.900000E-01   1.00800           0
       987 MEMB     4        DOPC     C213     CTL2    -0.180000       12.0110           0
       988 MEMB     4        DOPC     H13R     HAL2     0.900000E-01   1.00800           0
       989 MEMB     4        DOPC     H13S     HAL2     0.900000E-01   1.00800           0
       990 MEMB     4        DOPC     C214     CTL2    -0.180000       12.0110           0
       991 MEMB     4        DOPC     H14R     HAL2     0.900000E-01   1.00800           0
       992 MEMB     4        DOPC     H14S     HAL2     0.900000E-01   1.00800           0
       993 MEMB     4        DOPC     C215     CTL2    -0.180000       12.0110           0
       994 MEMB     4        DOPC     H15R     HAL2     0.900000E-01   1.00800           0
       995 MEMB     4        DOPC     H15S     HAL2     0.900000E-01   1.00800           0
       996 MEMB     4        DOPC     C216     CTL2    -0.180000       12.0110           0
       997 MEMB     4        DOPC     H16R     HAL2     0.900000E-01   1.00800           0
       998 MEMB     4        DOPC     H16S     HAL2     0.900000E-01   1.00800           0
       999 MEMB     4        DOPC     C217     CTL2    -0.180000       12.0110           0
      1000 MEMB     4        DOPC     H17R     HAL2     0.900000E-01   1.00800           0
      1001 MEMB     4        DOPC     H17S     HAL2     0.900000E-01   1.00800           0
      1002 MEMB     4        DOPC     C218     CTL3    -0.270000       12.0110           0
      1003 MEMB     4        DOPC     H18R     HAL3     0.900000E-01   1.00800           0
      1004 MEMB     4        DOPC     H18S     HAL3     0.900000E-01   1.00800           0
      1005 MEMB     4        DOPC     H18T     HAL3     0.900000E-01   1.00800           0
      1006 MEMB     4        DOPC     C33      CTL2    -0.180000       12.0110           0
      1007 MEMB     4        DOPC     H3X      HAL2     0.900000E-01   1.00800           0
      1008 MEMB     4        DOPC     H3Y      HAL2     0.900000E-01   1.00800           0
      1009 MEMB     4        DOPC     C34      CTL2    -0.180000       12.0110           0
      1010 MEMB     4        DOPC     H4X      HAL2     0.900000E-01   1.00800           0
      1011 MEMB     4        DOPC     H4Y      HAL2     0.900000E-01   1.00800           0
      1012 MEMB     4        DOPC     C35      CTL2    -0.180000       12.0110           0
      1013 MEMB     4        DOPC     H5X      HAL2     0.900000E-01   1.00800           0
      1014 MEMB     4        DOPC     H5Y      HAL2     0.900000E-01   1.00800           0
      1015 MEMB     4        DOPC     C36      CTL2    -0.180000       12.0110           0
      1016 MEMB     4        DOPC     H6X      HAL2     0.900000E-01   1.00800           0
      1017 MEMB     4        DOPC     H6Y      HAL2     0.900000E-01   1.00800           0
      1018 MEMB     4        DOPC     C37      CTL2    -0.180000       12.0110           0
      1019 MEMB     4        DOPC     H7X      HAL2     0.900000E-01   1.00800           0
      1020 MEMB     4        DOPC     H7Y      HAL2     0.900000E-01   1.00800           0
      1021 MEMB     4        DOPC     C38      CTL2    -0.180000       12.0110           0
      1022 MEMB     4        DOPC     H8X      HAL2     0.900000E-01   1.00800           0
      1023 MEMB     4        DOPC     H8Y      HAL2     0.900000E-01   1.00800           0
      1024 MEMB     4        DOPC     C39      CEL1    -0.150000       12.0110           0
      1025 MEMB     4        DOPC     H9X      HEL1     0.150000       1.00800           0
      1026 MEMB     4        DOPC     C310     CEL1    -0.150000       12.0110           0
      1027 MEMB     4        DOPC     H10X     HEL1     0.150000       1.00800           0
      1028 MEMB     4        DOPC     C311     CTL2    -0.180000       12.0110           0
      1029 MEMB     4        DOPC     H11X     HAL2     0.900000E-01   1.00800           0
      1030 MEMB     4        DOPC     H11Y     HAL2     0.900000E-01   1.00800           0
      1031 MEMB     4        DOPC     C312     CTL2    -0.180000       12.0110           0
      1032 MEMB     4        DOPC     H12X     HAL2     0.900000E-01   1.00800           0
      1033 MEMB     4        DOPC     H12Y     HAL2     0.900000E-01   1.00800           0
      1034 MEMB     4        DOPC     C313     CTL2    -0.180000       12.0110           0
      1035 MEMB     4        DOPC     H13X     HAL2     0.900000E-01   1.00800           0
      1036 MEMB     4        DOPC     H13Y     HAL2     0.900000E-01   1.00800           0
      1037 MEMB     4        DOPC     C314     CTL2    -0.180000       12.0110           0
      1038 MEMB     4        DOPC     H14X     HAL2     0.900000E-01   1.00800           0
      1039 MEMB     4        DOPC     H14Y     HAL2     0.900000E-01   1.00800           0
      1040 MEMB     4        DOPC     C315     CTL2    -0.180000       12.0110           0
      1041 MEMB     4        DOPC     H15X     HAL2     0.900000E-01   1.00800           0
      1042 MEMB     4        DOPC     H15Y     HAL2     0.900000E-01   1.00800           0
      1043 MEMB     4        DOPC     C316     CTL2    -0.180000       12.0110           0
      1044 MEMB     4        DOPC     H16X     HAL2     0.900000E-01   1.00800           0
      1045 MEMB     4        DOPC     H16Y     HAL2     0.900000E-01   1.00800           0
      1046 MEMB     4        DOPC     C317     CTL2    -0.180000       12.0110           0
      1047 MEMB     4        DOPC     H17X     HAL2     0.900000E-01   1.00800           0
      1048 MEMB     4        DOPC     H17Y     HAL2     0.900000E-01   1.00800           0
      1049 MEMB     4        DOPC     C318     CTL3    -0.270000       12.0110           0
      1050 MEMB     4        DOPC     H18X     HAL3     0.900000E-01   1.00800           0
      1051 MEMB     4        DOPC     H18Y     HAL3     0.900000E-01   1.00800           0
      1052 MEMB     4        DOPC     H18Z     HAL3     0.900000E-01   1.00800           0
      1053 MEMB     5        DOPC     N        NTL     -0.600000       14.0070           0
      1054 MEMB     5        DOPC     C12      CTL2    -0.100000       12.0110           0
      1055 MEMB     5        DOPC     H12A     HL       0.250000       1.00800           0
      1056 MEMB     5        DOPC     H12B     HL       0.250000       1.00800           0
      1057 MEMB     5        DOPC     C13      CTL5    -0.350000       12.0110           0
      1058 MEMB     5        DOPC     H13A     HL       0.250000       1.00800           0
      1059 MEMB     5        DOPC     H13B     HL       0.250000       1.00800           0
      1060 MEMB     5        DOPC     H13C     HL       0.250000       1.00800           0
      1061 MEMB     5        DOPC     C14      CTL5    -0.350000       12.0110           0
      1062 MEMB     5        DOPC     H14A     HL       0.250000       1.00800           0
      1063 MEMB     5        DOPC     H14B     HL       0.250000       1.00800           0
      1064 MEMB     5        DOPC     H14C     HL       0.250000       1.00800           0
      1065 MEMB     5        DOPC     C15      CTL5    -0.350000       12.0110           0
      1066 MEMB     5        DOPC     H15A     HL       0.250000       1.00800           0
      1067 MEMB     5        DOPC     H15B     HL       0.250000       1.00800           0
      1068 MEMB     5        DOPC     H15C     HL       0.250000       1.00800           0
      1069 MEMB     5        DOPC     C11      CTL2    -0.800000E-01   12.0110           0
      1070 MEMB     5        DOPC     H11A     HAL2     0.900000E-01   1.00800           0
      1071 MEMB     5        DOPC     H11B     HAL2     0.900000E-01   1.00800           0
      1072 MEMB     5        DOPC     P        PL        1.50000       30.9740           0
      1073 MEMB     5        DOPC     O13      O2L     -0.780000       15.9994           0
      1074 MEMB     5        DOPC     O14      O2L     -0.780000       15.9994           0
      1075 MEMB     5        DOPC     O12      OSLP    -0.570000       15.9994           0
      1076 MEMB     5        DOPC     O11      OSLP    -0.570000       15.9994           0
      1077 MEMB     5        DOPC     C1       CTL2    -0.800000E-01   12.0110           0
      1078 MEMB     5        DOPC     HA       HAL2     0.900000E-01   1.00800           0
      1079 MEMB     5        DOPC     HB       HAL2     0.900000E-01   1.00800           0
      1080 MEMB     5        DOPC     C2       CTL1     0.170000       12.0110           0
      1081 MEMB     5        DOPC     HS       HAL1     0.900000E-01   1.00800           0
      1082 MEMB     5        DOPC     O21      OSL     -0.490000       15.9994           0
      1083 MEMB     5        DOPC     C21      CL       0.900000       12.0110           0
      1084 MEMB     5        DOPC     O22      OBL     -0.630000       15.9994           0
      1085 MEMB     5        DOPC     C22      CTL2    -0.220000       12.0110           0
      1086 MEMB     5        DOPC     H2R      HAL2     0.900000E-01   1.00800           0
      1087 MEMB     5        DOPC     H2S      HAL2     0.900000E-01   1.00800           0
      1088 MEMB     5        DOPC     C3       CTL2     0.800000E-01   12.0110           0
      1089 MEMB     5        DOPC     HX       HAL2     0.900000E-01   1.00800           0
      1090 MEMB     5        DOPC     HY       HAL2     0.900000E-01   1.00800           0
      1091 MEMB     5        DOPC     O31      OSL     -0.490000       15.9994           0
      1092 MEMB     5        DOPC     C31      CL       0.900000       12.0110           0
      1093 MEMB     5        DOPC     O32      OBL     -0.630000       15.9994           0
      1094 MEMB     5        DOPC     C32      CTL2    -0.220000       12.0110           0
      1095 MEMB     5        DOPC     H2X      HAL2     0.900000E-01   1.00800           0
      1096 MEMB     5        DOPC     H2Y      HAL2     0.900000E-01   1.00800           0
      1097 MEMB     5        DOPC     C23      CTL2    -0.180000       12.0110           0
      1098 MEMB     5        DOPC     H3R      HAL2     0.900000E-01   1.00800           0
      1099 MEMB     5        DOPC     H3S      HAL2     0.900000E-01   1.00800           0
      1100 MEMB     5        DOPC     C24      CTL2    -0.180000       12.0110           0
      1101 MEMB     5        DOPC     H4R      HAL2     0.900000E-01   1.00800           0
      1102 MEMB     5        DOPC     H4S      HAL2     0.900000E-01   1.00800           0
      1103 MEMB     5        DOPC     C25      CTL2    -0.180000       12.0110           0
      1104 MEMB     5        DOPC     H5R      HAL2     0.900000E-01   1.00800           0
      1105 MEMB     5        DOPC     H5S      HAL2     0.900000E-01   1.00800           0
      1106 MEMB     5        DOPC     C26      CTL2    -0.180000       12.0110           0
      1107 MEMB     5        DOPC     H6R      HAL2     0.900000E-01   1.00800           0
      1108 MEMB     5        DOPC     H6S      HAL2     0.900000E-01   1.00800           0
      1109 MEMB     5        DOPC     C27      CTL2    -0.180000       12.0110           0
      1110 MEMB     5        DOPC     H7R      HAL2     0.900000E-01   1.00800           0
      1111 MEMB     5        DOPC     H7S      HAL2     0.900000E-01   1.00800           0
      1112 MEMB     5        DOPC     C28      CTL2    -0.180000       12.0110           0
      1113 MEMB     5        DOPC     H8R      HAL2     0.900000E-01   1.00800           0
      1114 MEMB     5        DOPC     H8S      HAL2     0.900000E-01   1.00800           0
      1115 MEMB     5        DOPC     C29      CEL1    -0.150000       12.0110           0
      1116 MEMB     5        DOPC     H9R      HEL1     0.150000       1.00800           0
      1117 MEMB     5        DOPC     C210     CEL1    -0.150000       12.0110           0
      1118 MEMB     5        DOPC     H10R     HEL1     0.150000       1.00800           0
      1119 MEMB     5        DOPC     C211     CTL2    -0.180000       12.0110           0
      1120 MEMB     5        DOPC     H11R     HAL2     0.900000E-01   1.00800           0
      1121 MEMB     5        DOPC     H11S     HAL2     0.900000E-01   1.00800           0
      1122 MEMB     5        DOPC     C212     CTL2    -0.180000       12.0110           0
      1123 MEMB     5        DOPC     H12R     HAL2     0.900000E-01   1.00800           0
      1124 MEMB     5        DOPC     H12S     HAL2     0.900000E-01   1.00800           0
      1125 MEMB     5        DOPC     C213     CTL2    -0.180000       12.0110           0
      1126 MEMB     5        DOPC     H13R     HAL2     0.900000E-01   1.00800           0
      1127 MEMB     5        DOPC     H13S     HAL2     0.900000E-01   1.00800           0
      1128 MEMB     5        DOPC     C214     CTL2    -0.180000       12.0110           0
      1129 MEMB     5        DOPC     H14R     HAL2     0.900000E-01   1.00800           0
      1130 MEMB     5        DOPC     H14S     HAL2     0.900000E-01   1.00800           0
      1131 MEMB     5        DOPC     C215     CTL2    -0.180000       12.0110           0
      1132 MEMB     5        DOPC     H15R     HAL2     0.900000E-01   1.00800           0
      1133 MEMB     5        DOPC     H15S     HAL2     0.900000E-01   1.00800           0
      1134 MEMB     5        DOPC     C216     CTL2    -0.180000       12.0110           0
      1135 MEMB     5        DOPC     H16R     HAL2     0.900000E-01   1.00800           0
      1136 MEMB     5        DOPC     H16S     HAL2     0.900000E-01   1.00800           0
      1137 MEMB     5        DOPC     C217     CTL2    -0.180000       12.0110           0
      1138 MEMB     5        DOPC     H17R     HAL2     0.900000E-01   1.00800           0
      1139 MEMB     5        DOPC     H17S     HAL2     0.900000E-01   1.00800           0
      1140 MEMB     5        DOPC     C218     CTL3    -0.270000       12.0110           0
      1141 MEMB     5        DOPC     H18R     HAL3     0.900000E-01   1.00800           0
      1142 MEMB     5        DOPC     H18S     HAL3     0.900000E-01   1.00800           0
      1143 MEMB     5        DOPC     H18T     HAL3     0.900000E-01   1.00800           0
      1144 MEMB     5        DOPC     C33      CTL2    -0.180000       12.0110           0
      1145 MEMB     5        DOPC     H3X      HAL2     0.900000E-01   1.00800           0
      1146 MEMB     5        DOPC     H3Y      HAL2     0.900000E-01   1.00800           0
      1147 MEMB     5        DOPC     C34      CTL2    -0.180000       12.0110           0
      1148 MEMB     5        DOPC     H4X      HAL2     0.900000E-01   1.00800           0
      1149 MEMB     5        DOPC     H4Y      HAL2     0.900000E-01   1.00800           0
      1150 MEMB     5        DOPC     C35      CTL2    -0.180000       12.0110           0
      1151 MEMB     5        DOPC     H5X      HAL2     0.900000E-01   1.00800           0
      1152 MEMB     5        DOPC     H5Y      HAL2     0.900000E-01   1.00800           0
      1153 MEMB     5        DOPC     C36      CTL2    -0.180000       12.0110           0
      1154 MEMB     5        DOPC     H6X      HAL2     0.900000E-01   1.00800           0
      1155 MEMB     5        DOPC     H6Y      HAL2     0.900000E-01   1.00800           0
      1156 MEMB     5        DOPC     C37      CTL2    -0.180000       12.0110           0
      1157 MEMB     5        DOPC     H7X      HAL2     0.900000E-01   1.00800           0
      1158 MEMB     5        DOPC     H7Y      HAL2     0.900000E-01   1.00800           0
      1159 MEMB     5        DOPC     C38      CTL2    -0.180000       12.0110           0
      1160 MEMB     5        DOPC     H8X      HAL2     0.900000E-01   1.00800           0
      1161 MEMB     5        DOPC     H8Y      HAL2     0.900000E-01   1.00800           0
      1162 MEMB     5        DOPC     C39      CEL1    -0.150000       12.0110           0
      1163 MEMB     5        DOPC     H9X      HEL1     0.150000       1.00800           0
      1164 MEMB     5        DOPC     C310     CEL1    -0.150000       12.0110           0
      1165 MEMB     5        DOPC     H10X     HEL1     0.150000       1.00800           0
      1166 MEMB     5        DOPC     C311     CTL2    -0.180000       12.0110           0
      1167 MEMB     5        DOPC     H11X     HAL2     0.900000E-01   1.00800           0
      1168 MEMB     5        DOPC     H11Y     HAL2     0.900000E-01   1.00800           0
      1169 MEMB     5        DOPC     C312     CTL2    -0.180000       12.0110           0
      1170 MEMB     5        DOPC     H12X     HAL2     0.900000E-01   1.00800           0
      1171 MEMB     5        DOPC     H12Y     HAL2     0.900000E-01   1.00800           0
      1172 MEMB     5        DOPC     C313     CTL2    -0.180000       12.0110           0
      1173 MEMB     5        DOPC     H13X     HAL2     0.900000E-01   1.00800           0
      1174 MEMB     5        DOPC     H13Y     HAL2     0.900000E-01   1.00800           0
      1175 MEMB     5        DOPC     C314     CTL2    -0.180000       12.0110           0
      1176 MEMB     5        DOPC     H14X     HAL2     0.900000E-01   1.00800           0
      1177 MEMB     5        DOPC     H14Y     HAL2     0.900000E-01   1.00800           0
      1178 MEMB     5        DOPC     C315     CTL2    -0.180000       12.0110           0
      1179 MEMB     5        DOPC     H15X     HAL2     0.900000E-01   1.00800           0
      1180 MEMB     5        DOPC     H15Y     HAL2     0.900000E-01   1.00800           0
      1181 MEMB     5        DOPC     C316     CTL2    -0.180000       12.0110           0
      1182 MEMB     5        DOPC     H16X     HAL2     0.900000E-01   1.00800           0
      1183 MEMB     5        DOPC     H16Y     HAL2     0.900000E-01   1.00800           0
      1184 MEMB     5        DOPC     C317     CTL2    -0.180000       12.0110           0
      1185 MEMB     5        DOPC     H17X     HAL2     0.900000E-01   1.00800           0
      1186 MEMB     5        DOPC     H17Y     HAL2     0.900000E-01   1.00800           0
      1187 MEMB     5        DOPC     C318     CTL3    -0.270000       12.0110           0
      1188 MEMB     5        DOPC     H18X     HAL3     0.900000E-01   1.00800           0
      1189 MEMB     5        DOPC     H18Y     HAL3     0.900000E-01   1.00800           0
      1190 MEMB     5        DOPC     H18Z     HAL3     0.900000E-01   1.00800           0
      1191 MEMB     6        DOPC     N        NTL     -0.600000       14.0070           0
      1192 MEMB     6        DOPC     C12      CTL2    -0.100000       12.0110           0
      1193 MEMB     6        DOPC     H12A     HL       0.250000       1.00800           0
      1194 MEMB     6        DOPC     H12B     HL       0.250000       1.00800           0
      1195 MEMB     6        DOPC     C13      CTL5    -0.350000       12.0110           0
      1196 MEMB     6        DOPC     H13A     HL       0.250000       1.00800           0
      1197 MEMB     6        DOPC     H13B     HL       0.250000       1.00800           0
      1198 MEMB     6        DOPC     H13C     HL       0.250000       1.00800           0
      1199 MEMB     6        DOPC     C14      CTL5    -0.350000       12.0110           0
      1200 MEMB     6        DOPC     H14A     HL       0.250000       1.00800           0
      1201 MEMB     6        DOPC     H14B     HL       0.250000       1.00800           0
      1202 MEMB     6        DOPC     H14C     HL       0.250000       1.00800           0
      1203 MEMB     6        DOPC     C15      CTL5    -0.350000       12.0110           0
      1204 MEMB     6        DOPC     H15A     HL       0.250000       1.00800           0
      1205 MEMB     6        DOPC     H15B     HL       0.250000       1.00800           0
      1206 MEMB     6        DOPC     H15C     HL       0.250000       1.00800           0
      1207 MEMB     6        DOPC     C11      CTL2    -0.800000E-01   12.0110           0
      1208 MEMB     6        DOPC     H11A     HAL2     0.900000E-01   1.00800           0
      1209 MEMB     6        DOPC     H11B     HAL2     0.900000E-01   1.00800           0
      1210 MEMB     6        DOPC     P        PL        1.50000       30.9740           0
      1211 MEMB     6        DOPC     O13      O2L     -0.780000       15.9994           0
      1212 MEMB     6        DOPC     O14      O2L     -0.780000       15.9994           0
      1213 MEMB     6        DOPC     O12      OSLP    -0.570000       15.9994           0
      1214 MEMB     6        DOPC     O11      OSLP    -0.570000       15.9994           0
      1215 MEMB     6        DOPC     C1       CTL2    -0.800000E-01   12.0110           0
      1216 MEMB     6        DOPC     HA       HAL2     0.900000E-01   1.00800           0
      1217 MEMB     6        DOPC     HB       HAL2     0.900000E-01   1.00800           0
      1218 MEMB     6        DOPC     C2       CTL1     0.170000       12.0110           0
      1219 MEMB     6        DOPC     HS       HAL1     0.900000E-01   1.00800           0
      1220 MEMB     6        DOPC     O21      OSL     -0.490000       15.9994           0
      1221 MEMB     6        DOPC     C21      CL       0.900000       12.0110           0
      1222 MEMB     6        DOPC     O22      OBL     -0.630000       15.9994           0
      1223 MEMB     6        DOPC     C22      CTL2    -0.220000       12.0110           0
      1224 MEMB     6        DOPC     H2R      HAL2     0.900000E-01   1.00800           0
      1225 MEMB     6        DOPC     H2S      HAL2     0.900000E-01   1.00800           0
      1226 MEMB     6        DOPC     C3       CTL2     0.800000E-01   12.0110           0
      1227 MEMB     6        DOPC     HX       HAL2     0.900000E-01   1.00800           0
      1228 MEMB     6        DOPC     HY       HAL2     0.900000E-01   1.00800           0
      1229 MEMB     6        DOPC     O31      OSL     -0.490000       15.9994           0
      1230 MEMB     6        DOPC     C31      CL       0.900000       12.0110           0
      1231 MEMB     6        DOPC     O32      OBL     -0.630000       15.9994           0
      1232 MEMB     6        DOPC     C32      CTL2    -0.220000       12.0110           0
      1233 MEMB     6        DOPC     H2X      HAL2     0.900000E-01   1.00800           0
      1234 MEMB     6        DOPC     H2Y      HAL2     0.900000E-01   1.00800           0
      1235 MEMB     6        DOPC     C23      CTL2    -0.180000       12.0110           0
      1236 MEMB     6        DOPC     H3R      HAL2     0.900000E-01   1.00800           0
      1237 MEMB     6        DOPC     H3S      HAL2     0.900000E-01   1.00800           0
      1238 MEMB     6        DOPC     C24      CTL2    -0.180000       12.0110           0
      1239 MEMB     6        DOPC     H4R      HAL2     0.900000E-01   1.00800           0
      1240 MEMB     6        DOPC     H4S      HAL2     0.900000E-01   1.00800           0
      1241 MEMB     6        DOPC     C25      CTL2    -0.180000       12.0110           0
      1242 MEMB     6        DOPC     H5R      HAL2     0.900000E-01   1.00800           0
      1243 MEMB     6        DOPC     H5S      HAL2     0.900000E-01   1.00800           0
      1244 MEMB     6        DOPC     C26      CTL2    -0.180000       12.0110           0
      1245 MEMB     6        DOPC     H6R      HAL2     0.900000E-01   1.00800           0
      1246 MEMB     6        DOPC     H6S      HAL2     0.900000E-01   1.00800           0
      1247 MEMB     6        DOPC     C27      CTL2    -0.180000       12.0110           0
      1248 MEMB     6        DOPC     H7R      HAL2     0.900000E-01   1.00800           0
      1249 MEMB     6        DOPC     H7S      HAL2     0.900000E-01   1.00800           0
      1250 MEMB     6        DOPC     C28      CTL2    -0.180000       12.0110           0
      1251 MEMB     6        DOPC     H8R      HAL2     0.900000E-01   1.00800           0
      1252 MEMB     6        DOPC     H8S      HAL2     0.900000E-01   1.00800           0
      1253 MEMB     6        DOPC     C29      CEL1    -0.150000       12.0110           0
      1254 MEMB     6        DOPC     H9R      HEL1     0.150000       1.00800           0
      1255 MEMB     6        DOPC     C210     CEL1    -0.150000       12.0110           0
      1256 MEMB     6        DOPC     H10R     HEL1     0.150000       1.00800           0
      1257 MEMB     6        DOPC     C211     CTL2    -0.180000       12.0110           0
      1258 MEMB     6        DOPC     H11R     HAL2     0.900000E-01   1.00800           0
      1259 MEMB     6        DOPC     H11S     HAL2     0.900000E-01   1.00800           0
      1260 MEMB     6        DOPC     C212     CTL2    -0.180000       12.0110           0
      1261 MEMB     6        DOPC     H12R     HAL2     0.900000E-01   1.00800           0
      1262 MEMB     6        DOPC     H12S     HAL2     0.900000E-01   1.00800           0
      1263 MEMB     6        DOPC     C213     CTL2    -0.180000       12.0110           0
      1264 MEMB     6        DOPC     H13R     HAL2     0.900000E-01   1.00800           0
      1265 MEMB     6        DOPC     H13S     HAL2     0.900000E-01   1.00800           0
      1266 MEMB     6        DOPC     C214     CTL2    -0.180000       12.0110           0
      1267 MEMB     6        DOPC     H14R     HAL2     0.900000E-01   1.00800           0
      1268 MEMB     6        DOPC     H14S     HAL2     0.900000E-01   1.00800           0
      1269 MEMB     6        DOPC     C215     CTL2    -0.180000       12.0110           0
      1270 MEMB     6        DOPC     H15R     HAL2     0.900000E-01   1.00800           0
      1271 MEMB     6        DOPC     H15S     HAL2     0.900000E-01   1.00800           0
      1272 MEMB     6        DOPC     C216     CTL2    -0.180000       12.0110           0
      1273 MEMB     6        DOPC     H16R     HAL2     0.900000E-01   1.00800           0
      1274 MEMB     6        DOPC     H16S     HAL2     0.900000E-01   1.00800           0
      1275 MEMB     6        DOPC     C217     CTL2    -0.180000       12.0110           0
      1276 MEMB     6        DOPC     H17R     HAL2     0.900000E-01   1.00800           0
      1277 MEMB     6        DOPC     H17S     HAL2     0.900000E-01   1.00800           0
      1278 MEMB     6        DOPC     C218     CTL3    -0.270000       12.0110           0
      1279 MEMB     6        DOPC     H18R     HAL3     0.900000E-01   1.00800           0
      1280 MEMB     6        DOPC     H18S     HAL3     0.900000E-01   1.00800           0
      1281 MEMB     6        DOPC     H18T     HAL3     0.900000E-01   1.00800           0
      1282 MEMB     6        DOPC     C33      CTL2    -0.180000       12.0110           0
      1283 MEMB     6        DOPC     H3X      HAL2     0.900000E-01   1.00800           0
      1284 MEMB     6        DOPC     H3Y      HAL2     0.900000E-01   1.00800           0
      1285 MEMB     6        DOPC     C34      CTL2    -0.180000       12.0110           0
      1286 MEMB     6        DOPC     H4X      HAL2     0.900000E-01   1.00800           0
      1287 MEMB     6        DOPC     H4Y      HAL2     0.900000E-01   1.00800           0
      1288 MEMB     6        DOPC     C35      CTL2    -0.180000       12.0110           0
      1289 MEMB     6        DOPC     H5X      HAL2     0.900000E-01   1.00800           0
      1290 MEMB     6        DOPC     H5Y      HAL2     0.900000E-01   1.00800           0
      1291 MEMB     6        DOPC     C36      CTL2    -0.180000       12.0110           0
      1292 MEMB     6        DOPC     H6X      HAL2     0.900000E-01   1.00800           0
      1293 MEMB     6        DOPC     H6Y      HAL2     0.900000E-01   1.00800           0
      1294 MEMB     6        DOPC     C37      CTL2    -0.180000       12.0110           0
      1295 MEMB     6        DOPC     H7X      HAL2     0.900000E-01   1.00800           0
      1296 MEMB     6        DOPC     H7Y      HAL2     0.900000E-01   1.00800           0
      1297 MEMB     6        DOPC     C38      CTL2    -0.180000       12.0110           0
      1298 MEMB     6        DOPC     H8X      HAL2     0.900000E-01   1.00800           0
      1299 MEMB     6        DOPC     H8Y      HAL2     0.900000E-01   1.00800           0
      1300 MEMB     6        DOPC     C39      CEL1    -0.150000       12.0110           0
      1301 MEMB     6        DOPC     H9X      HEL1     0.150000       1.00800           0
      1302 MEMB     6        DOPC     C310     CEL1    -0.150000       12.0110           0
      1303 MEMB     6        DOPC     H10X     HEL1     0.150000       1.00800           0
      1304 MEMB     6        DOPC     C311     CTL2    -0.180000       12.0110           0
      1305 MEMB     6        DOPC     H11X     HAL2     0.900000E-01   1.00800           0
      1306 MEMB     6        DOPC     H11Y     HAL2     0.900000E-01   1.00800           0
      1307 MEMB     6        DOPC     C312     CTL2    -0.180000       12.0110           0
      1308 MEMB     6        DOPC     H12X     HAL2     0.900000E-01   1.00800           0
      1309 MEMB     6        DOPC     H12Y     HAL2     0.900000E-01   1.00800           0
      1310 MEMB     6        DOPC     C313     CTL2    -0.180000       12.0110           0
      1311 MEMB     6        DOPC     H13X     HAL2     0.900000E-01   1.00800           0
      1312 MEMB     6        DOPC     H13Y     HAL2     0.900000E-01   1.00800           0
      1313 MEMB     6        DOPC     C314     CTL2    -0.180000       12.0110           0
      1314 MEMB     6        DOPC     H14X     HAL2     0.900000E-01   1.00800           0
      1315 MEMB     6        DOPC     H14Y     HAL2     0.900000E-01   1.00800           0
      1316 MEMB     6        DOPC     C315     CTL2    -0.180000       12.0110           0
      1317 MEMB     6        DOPC     H15X     HAL2     0.900000E-01   1.00800           0
      1318 MEMB     6        DOPC     H15Y     HAL2     0.900000E-01   1.00800           0
      1319 MEMB     6        DOPC     C316     CTL2    -0.180000       12.0110           0
      1320 MEMB     6        DOPC     H16X     HAL2     0.900000E-01   1.00800           0
      1321 MEMB     6        DOPC     H16Y     HAL2     0.900000E-01   1.00800           0
      1322 MEMB     6        DOPC     C317     CTL2    -0.180000       12.0110           0
      1323 MEMB     6        DOPC     H17X     HAL2     0.900000E-01   1.00800           0
      1324 MEMB     6        DOPC     H17Y     HAL2     0.900000E-01   1.00800           0
      1325 MEMB     6        DOPC     C318     CTL3    -0.270000       12.0110           0
      1326 MEMB     6        DOPC     H18X     HAL3     0.900000E-01   1.00800           0
      1327 MEMB     6        DOPC     H18Y     HAL3     0.900000E-01   1.00800           0
      1328 MEMB     6        DOPC     H18Z     HAL3     0.900000E-01   1.00800           0
      1329 MEMB     7        DOPC     N        NTL     -0.600000       14.0070           0
      1330 MEMB     7        DOPC     C12      CTL2    -0.100000       12.0110           0
      1331 MEMB     7        DOPC     H12A     HL       0.250000       1.00800           0
      1332 MEMB     7        DOPC     H12B     HL       0.250000       1.00800           0
      1333 MEMB     7        DOPC     C13      CTL5    -0.350000       12.0110           0
      1334 MEMB     7        DOPC     H13A     HL       0.250000       1.00800           0
      1335 MEMB     7        DOPC     H13B     HL       0.250000       1.00800           0
      1336 MEMB     7        DOPC     H13C     HL       0.250000       1.00800           0
      1337 MEMB     7        DOPC     C14      CTL5    -0.350000       12.0110           0
      1338 MEMB     7        DOPC     H14A     HL       0.250000       1.00800           0
      1339 MEMB     7        DOPC     H14B     HL       0.250000       1.00800           0
      1340 MEMB     7        DOPC     H14C     HL       0.250000       1.00800           0
      1341 MEMB     7        DOPC     C15      CTL5    -0.350000       12.0110           0
      1342 MEMB     7        DOPC     H15A     HL       0.250000       1.00800           0
      1343 MEMB     7        DOPC     H15B     HL       0.250000       1.00800           0
      1344 MEMB     7        DOPC     H15C     HL       0.250000       1.00800           0
      1345 MEMB     7        DOPC     C11      CTL2    -0.800000E-01   12.0110           0
      1346 MEMB     7        DOPC     H11A     HAL2     0.900000E-01   1.00800           0
      1347 MEMB     7        DOPC     H11B     HAL2     0.900000E-01   1.00800           0
      1348 MEMB     7        DOPC     P        PL        1.50000       30.9740           0
      1349 MEMB     7        DOPC     O13      O2L     -0.780000       15.9994           0
      1350 MEMB     7        DOPC     O14      O2L     -0.780000       15.9994           0
      1351 MEMB     7        DOPC     O12      OSLP    -0.570000       15.9994           0
      1352 MEMB     7        DOPC     O11      OSLP    -0.570000       15.9994           0
      1353 MEMB     7        DOPC     C1       CTL2    -0.800000E-01   12.0110           0
      1354 MEMB     7        DOPC     HA       HAL2     0.900000E-01   1.00800           0
      1355 MEMB     7        DOPC     HB       HAL2     0.900000E-01   1.00800           0
      1356 MEMB     7        DOPC     C2       CTL1     0.170000       12.0110           0
      1357 MEMB     7        DOPC     HS       HAL1     0.900000E-01   1.00800           0
      1358 MEMB     7        DOPC     O21      OSL     -0.490000       15.9994           0
      1359 MEMB     7        DOPC     C21      CL       0.900000       12.0110           0
      1360 MEMB     7        DOPC     O22      OBL     -0.630000       15.9994           0
      1361 MEMB     7        DOPC     C22      CTL2    -0.220000       12.0110           0
      1362 MEMB     7        DOPC     H2R      HAL2     0.900000E-01   1.00800           0
      1363 MEMB     7        DOPC     H2S      HAL2     0.900000E-01   1.00800           0
      1364 MEMB     7        DOPC     C3       CTL2     0.800000E-01   12.0110           0
      1365 MEMB     7        DOPC     HX       HAL2     0.900000E-01   1.00800           0
      1366 MEMB     7        DOPC     HY       HAL2     0.900000E-01   1.00800           0
      1367 MEMB     7        DOPC     O31      OSL     -0.490000       15.9994           0
      1368 MEMB     7        DOPC     C31      CL       0.900000       12.0110           0
      1369 MEMB     7        DOPC     O32      OBL     -0.630000       15.9994           0
      1370 MEMB     7        DOPC     C32      CTL2    -0.220000       12.0110           0
      1371 MEMB     7        DOPC     H2X      HAL2     0.900000E-01   1.00800           0
      1372 MEMB     7        DOPC     H2Y      HAL2     0.900000E-01   1.00800           0
      1373 MEMB     7        DOPC     C23      CTL2    -0.180000       12.0110           0
      1374 MEMB     7        DOPC     H3R      HAL2     0.900000E-01   1.00800           0
      1375 MEMB     7        DOPC     H3S      HAL2     0.900000E-01   1.00800           0
      1376 MEMB     7        DOPC     C24      CTL2    -0.180000       12.0110           0
      1377 MEMB     7        DOPC     H4R      HAL2     0.900000E-01   1.00800           0
      1378 MEMB     7        DOPC     H4S      HAL2     0.900000E-01   1.00800           0
      1379 MEMB     7        DOPC     C25      CTL2    -0.180000       12.0110           0
      1380 MEMB     7        DOPC     H5R      HAL2     0.900000E-01   1.00800           0
      1381 MEMB     7        DOPC     H5S      HAL2     0.900000E-01   1.00800           0
      1382 MEMB     7        DOPC     C26      CTL2    -0.180000       12.0110           0
      1383 MEMB     7        DOPC     H6R      HAL2     0.900000E-01   1.00800           0
      1384 MEMB     7        DOPC     H6S      HAL2     0.900000E-01   1.00800           0
      1385 MEMB     7        DOPC     C27      CTL2    -0.180000       12.0110           0
      1386 MEMB     7        DOPC     H7R      HAL2     0.900000E-01   1.00800           0
      1387 MEMB     7        DOPC     H7S      HAL2     0.900000E-01   1.00800           0
      1388 MEMB     7        DOPC     C28      CTL2    -0.180000       12.0110           0
      1389 MEMB     7        DOPC     H8R      HAL2     0.900000E-01   1.00800           0
      1390 MEMB     7        DOPC     H8S      HAL2     0.900000E-01   1.00800           0
      1391 MEMB     7        DOPC     C29      CEL1    -0.150000       12.0110           0
      1392 MEMB     7        DOPC     H9R      HEL1     0.150000       1.00800           0
      1393 MEMB     7        DOPC     C210     CEL1    -0.150000       12.0110           0
      1394 MEMB     7        DOPC     H10R     HEL1     0.150000       1.00800           0
      1395 MEMB     7        DOPC     C211     CTL2    -0.180000       12.0110           0
      1396 MEMB     7        DOPC     H11R     HAL2     0.900000E-01   1.00800           0
      1397 MEMB     7        DOPC     H11S     HAL2     0.900000E-01   1.00800           0
      1398 MEMB     7        DOPC     C212     CTL2    -0.180000       12.0110           0
      1399 MEMB     7        DOPC     H12R     HAL2     0.900000E-01   1.00800           0
      1400 MEMB     7        DOPC     H12S     HAL2     0.900000E-01   1.00800           0
      1401 MEMB     7        DOPC     C213     CTL2    -0.180000       12.0110           0
      1402 MEMB     7        DOPC     H13R     HAL2     0.900000E-01   1.00800           0
      1403 MEMB     7        DOPC     H13S     HAL2     0.900000E-01   1.00800           0
      1404 MEMB     7        DOPC     C214     CTL2    -0.180000       12.0110           0
      1405 MEMB     7        DOPC     H14R     HAL2     0.900000E-01   1.00800           0
      1406 MEMB     7        DOPC     H14S     HAL2     0.900000E-01   1.00800           0
      1407 MEMB     7        DOPC     C215     CTL2    -0.180000       12.0110           0
      1408 MEMB     7        DOPC     H15R     HAL2     0.900000E-01   1.00800           0
      1409 MEMB     7        DOPC     H15S     HAL2     0.900000E-01   1.00800           0
      1410 MEMB     7        DOPC     C216     CTL2    -0.180000       12.0110           0
      1411 MEMB     7        DOPC     H16R     HAL2     0.900000E-01   1.00800           0
      1412 MEMB     7        DOPC     H16S     HAL2     0.900000E-01   1.00800           0
      1413 MEMB     7        DOPC     C217     CTL2    -0.180000       12.0110           0
      1414 MEMB     7        DOPC     H17R     HAL2     0.900000E-01   1.00800           0
      1415 MEMB     7        DOPC     H17S     HAL2     0.900000E-01   1.00800           0
      1416 MEMB     7        DOPC     C218     CTL3    -0.270000       12.0110           0
      1417 MEMB     7        DOPC     H18R     HAL3     0.900000E-01   1.00800           0
      1418 MEMB     7        DOPC     H18S     HAL3     0.900000E-01   1.00800           0
      1419 MEMB     7        DOPC     H18T     HAL3     0.900000E-01   1.00800           0
      1420 MEMB     7        DOPC     C33      CTL2    -0.180000       12.0110           0
      1421 MEMB     7        DOPC     H3X      HAL2     0.900000E-01   1.00800           0
      1422 MEMB     7        DOPC     H3Y      HAL2     0.900000E-01   1.00800           0
      1423 MEMB     7        DOPC     C34      CTL2    -0.180000       12.0110           0
      1424 MEMB     7        DOPC     H4X      HAL2     0.900000E-01   1.00800           0
      1425 MEMB     7        DOPC     H4Y      HAL2     0.900000E-01   1.00800           0
      1426 MEMB     7        DOPC     C35      CTL2    -0.180000       12.0110           0
      1427 MEMB     7        DOPC     H5X      HAL2     0.900000E-01   1.00800           0
      1428 MEMB     7        DOPC     H5Y      HAL2     0.900000E-01   1.00800           0
      1429 MEMB     7        DOPC     C36      CTL2    -0.180000       12.0110           0
      1430 MEMB     7        DOPC     H6X      HAL2     0.900000E-01   1.00800           0
      1431 MEMB     7        DOPC     H6Y      HAL2     0.900000E-01   1.00800           0
      1432 MEMB     7        DOPC     C37      CTL2    -0.180000       12.0110           0
      1433 MEMB     7        DOPC     H7X      HAL2     0.900000E-01   1.00800           0
      1434 MEMB     7        DOPC     H7Y      HAL2     0.900000E-01   1.00800           0
      1435 MEMB     7        DOPC     C38      CTL2    -0.180000       12.0110           0
      1436 MEMB     7        DOPC     H8X      HAL2     0.900000E-01   1.00800           0
      1437 MEMB     7        DOPC     H8Y      HAL2     0.900000E-01   1.00800           0
      1438 MEMB     7        DOPC     C39      CEL1    -0.150000       12.0110           0
      1439 MEMB     7        DOPC     H9X      HEL1     0.150000       1.00800           0
      1440 MEMB     7        DOPC     C310     CEL1    -0.150000       12.0110           0
      1441 MEMB     7        DOPC     H10X     HEL1     0.150000       1.00800           0
      1442 MEMB     7        DOPC     C311     CTL2    -0.180000       12.0110           0
      1443 MEMB     7        DOPC     H11X     HAL2     0.900000E-01   1.00800           0
      1444 MEMB     7        DOPC     H11Y     HAL2     0.900000E-01   1.00800           0
      1445 MEMB     7        DOPC     C312     CTL2    -0.180000       12.0110           0
      1446 MEMB     7        DOPC     H12X     HAL2     0.900000E-01   1.00800           0
      1447 MEMB     7        DOPC     H12Y     HAL2     0.900000E-01   1.00800           0
      1448 MEMB     7        DOPC     C313     CTL2    -0.180000       12.0110           0
      1449 MEMB     7        DOPC     H13X     HAL2     0.900000E-01   1.00800           0
      1450 MEMB     7        DOPC     H13Y     HAL2     0.900000E-01   1.00800           0
      1451 MEMB     7        DOPC     C314     CTL2    -0.180000       12.0110           0
      1452 MEMB     7        DOPC     H14X     HAL2     0.900000E-01   1.00800           0
      1453 MEMB     7        DOPC     H14Y     HAL2     0.900000E-01   1.00800           0
      1454 MEMB     7        DOPC     C315     CTL2    -0.180000       12.0110           0
      1455 MEMB     7        DOPC     H15X     HAL2     0.900000E-01   1.00800           0
      1456 MEMB     7        DOPC     H15Y     HAL2     0.900000E-01   1.00800           0
      1457 MEMB     7        DOPC     C316     CTL2    -0.180000       12.0110           0
      1458 MEMB     7        DOPC     H16X     HAL2     0.900000E-01   1.00800           0
      1459 MEMB     7        DOPC     H16Y     HAL2     0.900000E-01   1.00800           0
      1460 MEMB     7        DOPC     C317     CTL2    -0.180000       12.0110           0
      1461 MEMB     7        DOPC     H17X     HAL2     0.900000E-01   1.00800           0
      1462 MEMB     7        DOPC     H17Y     HAL2     0.900000E-01   1.00800           0
      1463 MEMB     7        DOPC     C318     CTL3    -0.270000       12.0110           0
      1464 MEMB     7        DOPC     H18X     HAL3     0.900000E-01   1.00800           0
      1465 MEMB     7        DOPC     H18Y     HAL3     0.900000E-01   1.00800           0
      1466 MEMB     7        DOPC     H18Z     HAL3     0.900000E-01   1.00800           0
      1467 MEMB     8        DOPC     N        NTL     -0.600000       14.0070           0
      1468 MEMB     8        DOPC     C12      CTL2    -0.100000       12.0110           0
      1469 MEMB     8        DOPC     H12A     HL       0.250000       1.00800           0
      1470 MEMB     8        DOPC     H12B     HL       0.250000       1.00800           0
      1471 MEMB     8        DOPC     C13      CTL5    -0.350000       12.0110           0
      1472 MEMB     8        DOPC     H13A     HL       0.250000       1.00800           0
      1473 MEMB     8        DOPC     H13B     HL       0.250000       1.00800           0
      1474 MEMB     8        DOPC     H13C     HL       0.250000       1.00800           0
      1475 MEMB     8        DOPC     C14      CTL5    -0.350000       12.0110           0
      1476 MEMB     8        DOPC     H14A     HL       0.250000       1.00800           0
      1477 MEMB     8        DOPC     H14B     HL       0.250000       1.00800           0
      1478 MEMB     8        DOPC     H14C     HL       0.250000       1.00800           0
      1479 MEMB     8        DOPC     C15      CTL5    -0.350000       12.0110           0
      1480 MEMB     8        DOPC     H15A     HL       0.250000       1.00800           0
      1481 MEMB     8        DOPC     H15B     HL       0.250000       1.00800           0
      1482 MEMB     8        DOPC     H15C     HL       0.250000       1.00800           0
      1483 MEMB     8        DOPC     C11      CTL2    -0.800000E-01   12.0110           0
      1484 MEMB     8        DOPC     H11A     HAL2     0.900000E-01   1.00800           0
      1485 MEMB     8        DOPC     H11B     HAL2     0.900000E-01   1.00800           0
      1486 MEMB     8        DOPC     P        PL        1.50000       30.9740           0
      1487 MEMB     8        DOPC     O13      O2L     -0.780000       15.9994           0
      1488 MEMB     8        DOPC     O14      O2L     -0.780000       15.9994           0
      1489 MEMB     8        DOPC     O12      OSLP    -0.570000       15.9994           0
      1490 MEMB     8        DOPC     O11      OSLP    -0.570000       15.9994           0
      1491 MEMB     8        DOPC     C1       CTL2    -0.800000E-01   12.0110           0
      1492 MEMB     8        DOPC     HA       HAL2     0.900000E-01   1.00800           0
      1493 MEMB     8        DOPC     HB       HAL2     0.900000E-01   1.00800           0
      1494 MEMB     8        DOPC     C2       CTL1     0.170000       12.0110           0
      1495 MEMB     8        DOPC     HS       HAL1     0.900000E-01   1.00800           0
      1496 MEMB     8        DOPC     O21      OSL     -0.490000       15.9994           0
      1497 MEMB     8        DOPC     C21      CL       0.900000       12.0110           0
      1498 MEMB     8        DOPC     O22      OBL     -0.630000       15.9994           0
      1499 MEMB     8        DOPC     C22      CTL2    -0.220000       12.0110           0
      1500 MEMB     8        DOPC     H2R      HAL2     0.900000E-01   1.00800           0
      1501 MEMB     8        DOPC     H2S      HAL2     0.900000E-01   1.00800           0
      1502 MEMB     8        DOPC     C3       CTL2     0.800000E-01   12.0110           0
      1503 MEMB     8        DOPC     HX       HAL2     0.900000E-01   1.00800           0
      1504 MEMB     8        DOPC     HY       HAL2     0.900000E-01   1.00800           0
      1505 MEMB     8        DOPC     O31      OSL     -0.490000       15.9994           0
      1506 MEMB     8        DOPC     C31      CL       0.900000       12.0110           0
      1507 MEMB     8        DOPC     O32      OBL     -0.630000       15.9994           0
      1508 MEMB     8        DOPC     C32      CTL2    -0.220000       12.0110           0
      1509 MEMB     8        DOPC     H2X      HAL2     0.900000E-01   1.00800           0
      1510 MEMB     8        DOPC     H2Y      HAL2     0.900000E-01   1.00800           0
      1511 MEMB     8        DOPC     C23      CTL2    -0.180000       12.0110           0
      1512 MEMB     8        DOPC     H3R      HAL2     0.900000E-01   1.00800           0
      1513 MEMB     8        DOPC     H3S      HAL2     0.900000E-01   1.00800           0
      1514 MEMB     8        DOPC     C24      CTL2    -0.180000       12.0110           0
      1515 MEMB     8        DOPC     H4R      HAL2     0.900000E-01   1.00800           0
      1516 MEMB     8        DOPC     H4S      HAL2     0.900000E-01   1.00800           0
      1517 MEMB     8        DOPC     C25      CTL2    -0.180000       12.0110           0
      1518 MEMB     8        DOPC     H5R      HAL2     0.900000E-01   1.00800           0
      1519 MEMB     8        DOPC     H5S      HAL2     0.900000E-01   1.00800           0
      1520 MEMB     8        DOPC     C26      CTL2    -0.180000       12.0110           0
      1521 MEMB     8        DOPC     H6R      HAL2     0.900000E-01   1.00800           0
      1522 MEMB     8        DOPC     H6S      HAL2     0.900000E-01   1.00800           0
      1523 MEMB     8        DOPC     C27      CTL2    -0.180000       12.0110           0
      1524 MEMB     8        DOPC     H7R      HAL2     0.900000E-01   1.00800           0
      1525 MEMB     8        DOPC     H7S      HAL2     0.900000E-01   1.00800           0
      1526 MEMB     8        DOPC     C28      CTL2    -0.180000       12.0110           0
      1527 MEMB     8        DOPC     H8R      HAL2     0.900000E-01   1.00800           0
      1528 MEMB     8        DOPC     H8S      HAL2     0.900000E-01   1.00800           0
      1529 MEMB     8        DOPC     C29      CEL1    -0.150000       12.0110           0
      1530 MEMB     8        DOPC     H9R      HEL1     0.150000       1.00800           0
      1531 MEMB     8        DOPC     C210     CEL1    -0.150000       12.0110           0
      1532 MEMB     8        DOPC     H10R     HEL1     0.150000       1.00800           0
      1533 MEMB     8        DOPC     C211     CTL2    -0.180000       12.0110           0
      1534 MEMB     8        DOPC     H11R     HAL2     0.900000E-01   1.00800           0
      1535 MEMB     8        DOPC     H11S     HAL2     0.900000E-01   1.00800           0
      1536 MEMB     8        DOPC     C212     CTL2    -0.180000       12.0110           0
      1537 MEMB     8        DOPC     H12R     HAL2     0.900000E-01   1.00800           0
      1538 MEMB     8        DOPC     H12S     HAL2     0.900000E-01   1.00800           0
      1539 MEMB     8        DOPC     C213     CTL2    -0.180000       12.0110           0
      1540 MEMB     8        DOPC     H13R     HAL2     0.900000E-01   1.00800           0
      1541 MEMB     8        DOPC     H13S     HAL2     0.900000E-01   1.00800           0
      1542 MEMB     8        DOPC     C214     CTL2    -0.180000       12.0110           0
      1543 MEMB     8        DOPC     H14R     HAL2     0.900000E-01   1.00800           0
      1544 MEMB     8        DOPC     H14S     HAL2     0.900000E-01   1.00800           0
      1545 MEMB     8        DOPC     C215     CTL2    -0.180000       12.0110           0
      1546 MEMB     8        DOPC     H15R     HAL2     0.900000E-01   1.00800           0
      1547 MEMB     8        DOPC     H15S     HAL2     0.900000E-01   1.00800           0
      1548 MEMB     8        DOPC     C216     CTL2    -0.180000       12.0110           0
      1549 MEMB     8        DOPC     H16R     HAL2     0.900000E-01   1.00800           0
      1550 MEMB     8        DOPC     H16S     HAL2     0.900000E-01   1.00800           0
      1551 MEMB     8        DOPC     C217     CTL2    -0.180000       12.0110           0
      1552 MEMB     8        DOPC     H17R     HAL2     0.900000E-01   1.00800           0
      1553 MEMB     8        DOPC     H17S     HAL2     0.900000E-01   1.00800           0
      1554 MEMB     8        DOPC     C218     CTL3    -0.270000       12.0110           0
      1555 MEMB     8        DOPC     H18R     HAL3     0.900000E-01   1.00800           0
      1556 MEMB     8        DOPC     H18S     HAL3     0.900000E-01   1.00800           0
      1557 MEMB     8        DOPC     H18T     HAL3     0.900000E-01   1.00800           0
      1558 MEMB     8        DOPC     C33      CTL2    -0.180000       12.0110           0
      1559 MEMB     8        DOPC     H3X      HAL2     0.900000E-01   1.00800           0
      1560 MEMB     8        DOPC     H3Y      HAL2     0.900000E-01   1.00800           0
      1561 MEMB     8        DOPC     C34      CTL2    -0.180000       12.0110           0
      1562 MEMB     8        DOPC     H4X      HAL2     0.900000E-01   1.00800           0
      1563 MEMB     8        DOPC     H4Y      HAL2     0.900000E-01   1.00800           0
      1564 MEMB     8        DOPC     C35      CTL2    -0.180000       12.0110           0
      1565 MEMB     8        DOPC     H5X      HAL2     0.900000E-01   1.00800           0
      1566 MEMB     8        DOPC     H5Y      HAL2     0.900000E-01   1.00800           0
      1567 MEMB     8        DOPC     C36      CTL2    -0.180000       12.0110           0
      1568 MEMB     8        DOPC     H6X      HAL2     0.900000E-01   1.00800           0
      1569 MEMB     8        DOPC     H6Y      HAL2     0.900000E-01   1.00800           0
      1570 MEMB     8        DOPC     C37      CTL2    -0.180000       12.0110           0
      1571 MEMB     8        DOPC     H7X      HAL2     0.900000E-01   1.00800           0
      1572 MEMB     8        DOPC     H7Y      HAL2     0.900000E-01   1.00800           0
      1573 MEMB     8        DOPC     C38      CTL2    -0.180000       12.0110           0
      1574 MEMB     8        DOPC     H8X      HAL2     0.900000E-01   1.00800           0
      1575 MEMB     8        DOPC     H8Y      HAL2     0.900000E-01   1.00800           0
      1576 MEMB     8        DOPC     C39      CEL1    -0.150000       12.0110           0
      1577 MEMB     8        DOPC     H9X      HEL1     0.150000       1.00800           0
      1578 MEMB     8        DOPC     C310     CEL1    -0.150000       12.0110           0
      1579 MEMB     8        DOPC     H10X     HEL1     0.150000       1.00800           0
      1580 MEMB     8        DOPC     C311     CTL2    -0.180000       12.0110           0
      1581 MEMB     8        DOPC     H11X     HAL2     0.900000E-01   1.00800           0
      1582 MEMB     8        DOPC     H11Y     HAL2     0.900000E-01   1.00800           0
      1583 MEMB     8        DOPC     C312     CTL2    -0.180000       12.0110           0
      1584 MEMB     8        DOPC     H12X     HAL2     0.900000E-01   1.00800           0
      1585 MEMB     8        DOPC     H12Y     HAL2     0.900000E-01   1.00800           0
      1586 MEMB     8        DOPC     C313     CTL2    -0.180000       12.0110           0
      1587 MEMB     8        DOPC     H13X     HAL2     0.900000E-01   1.00800           0
      1588 MEMB     8        DOPC     H13Y     HAL2     0.900000E-01   1.00800           0
      1589 MEMB     8        DOPC     C314     CTL2    -0.180000       12.0110           0
      1590 MEMB     8        DOPC     H14X     HAL2     0.900000E-01   1.00800           0
      1591 MEMB     8        DOPC     H14Y     HAL2     0.900000E-01   1.00800           0
      1592 MEMB     8        DOPC     C315     CTL2    -0.180000       12.0110           0
      1593 MEMB     8        DOPC     H15X     HAL2     0.900000E-01   1.00800           0
      1594 MEMB     8        DOPC     H15Y     HAL2     0.900000E-01   1.00800           0
      1595 MEMB     8        DOPC     C316     CTL2    -0.180000       12.0110           0
      1596 MEMB     8        DOPC     H16X     HAL2     0.900000E-01   1.00800           0
      1597 MEMB     8        DOPC     H16Y     HAL2     0.900000E-01   1.00800           0
      1598 MEMB     8        DOPC     C317     CTL2    -0.180000       12.0110           0
      1599 MEMB     8        DOPC     H17X     HAL2     0.900000E-01   1.00800           0
      1600 MEMB     8        DOPC     H17Y     HAL2     0.900000E-01   1.00800           0
      1601 MEMB     8        DOPC     C318     CTL3    -0.270000       12.0110           0
      1602 MEMB     8        DOPC     H18X     HAL3     0.900000E-01   1.00800           0
      1603 MEMB     8        DOPC     H18Y     HAL3     0.900000E-01   1.00800           0
      1604 MEMB     8        DOPC     H18Z     HAL3     0.900000E-01   1.00800           0
      1605 MEMB     9        DOPC     N        NTL     -0.600000       14.0070           0
      1606 MEMB     9        DOPC     C12      CTL2    -0.100000       12.0110           0
      1607 MEMB     9        DOPC     H12A     HL       0.250000       1.00800           0
      1608 MEMB     9        DOPC     H12B     HL       0.250000       1.00800           0
      1609 MEMB     9        DOPC     C13      CTL5    -0.350000       12.0110           0
      1610 MEMB     9        DOPC     H13A     HL       0.250000       1.00800           0
      1611 MEMB     9        DOPC     H13B     HL       0.250000       1.00800           0
      1612 MEMB     9        DOPC     H13C     HL       0.250000       1.00800           0
      1613 MEMB     9        DOPC     C14      CTL5    -0.350000       12.0110           0
      1614 MEMB     9        DOPC     H14A     HL       0.250000       1.00800           0
      1615 MEMB     9        DOPC     H14B     HL       0.250000       1.00800           0
      1616 MEMB     9        DOPC     H14C     HL       0.250000       1.00800           0
      1617 MEMB     9        DOPC     C15      CTL5    -0.350000       12.0110           0
      1618 MEMB     9        DOPC     H15A     HL       0.250000       1.00800           0
      1619 MEMB     9        DOPC     H15B     HL       0.250000       1.00800           0
      1620 MEMB     9        DOPC     H15C     HL       0.250000       1.00800           0
      1621 MEMB     9        DOPC     C11      CTL2    -0.800000E-01   12.0110           0
      1622 MEMB     9        DOPC     H11A     HAL2     0.900000E-01   1.00800           0
      1623 MEMB     9        DOPC     H11B     HAL2     0.900000E-01   1.00800           0
      1624 MEMB     9        DOPC     P        PL        1.50000       30.9740           0
      1625 MEMB     9        DOPC     O13      O2L     -0.780000       15.9994           0
      1626 MEMB     9        DOPC     O14      O2L     -0.780000       15.9994           0
      1627 MEMB     9        DOPC     O12      OSLP    -0.570000       15.9994           0
      1628 MEMB     9        DOPC     O11      OSLP    -0.570000       15.9994           0
      1629 MEMB     9        DOPC     C1       CTL2    -0.800000E-01   12.0110           0
      1630 MEMB     9        DOPC     HA       HAL2     0.900000E-01   1.00800           0
      1631 MEMB     9        DOPC     HB       HAL2     0.900000E-01   1.00800           0
      1632 MEMB     9        DOPC     C2       CTL1     0.170000       12.0110           0
      1633 MEMB     9        DOPC     HS       HAL1     0.900000E-01   1.00800           0
      1634 MEMB     9        DOPC     O21      OSL     -0.490000       15.9994           0
      1635 MEMB     9        DOPC     C21      CL       0.900000       12.0110           0
      1636 MEMB     9        DOPC     O22      OBL     -0.630000       15.9994           0
      1637 MEMB     9        DOPC     C22      CTL2    -0.220000       12.0110           0
      1638 MEMB     9        DOPC     H2R      HAL2     0.900000E-01   1.00800           0
      1639 MEMB     9        DOPC     H2S      HAL2     0.900000E-01   1.00800           0
      1640 MEMB     9        DOPC     C3       CTL2     0.800000E-01   12.0110           0
      1641 MEMB     9        DOPC     HX       HAL2     0.900000E-01   1.00800           0
      1642 MEMB     9        DOPC     HY       HAL2     0.900000E-01   1.00800           0
      1643 MEMB     9        DOPC     O31      OSL     -0.490000       15.9994           0
      1644 MEMB     9        DOPC     C31      CL       0.900000       12.0110           0
      1645 MEMB     9        DOPC     O32      OBL     -0.630000       15.9994           0
      1646 MEMB     9        DOPC     C32      CTL2    -0.220000       12.0110           0
      1647 MEMB     9        DOPC     H2X      HAL2     0.900000E-01   1.00800           0
      1648 MEMB     9        DOPC     H2Y      HAL2     0.900000E-01   1.00800           0
      1649 MEMB     9        DOPC     C23      CTL2    -0.180000       12.0110           0
      1650 MEMB     9        DOPC     H3R      HAL2     0.900000E-01   1.00800           0
      1651 MEMB     9        DOPC     H3S      HAL2     0.900000E-01   1.00800           0
      1652 MEMB     9        DOPC     C24      CTL2    -0.180000       12.0110           0
      1653 MEMB     9        DOPC     H4R      HAL2     0.900000E-01   1.00800           0
      1654 MEMB     9        DOPC     H4S      HAL2     0.900000E-01   1.00800           0
      1655 MEMB     9        DOPC     C25      CTL2    -0.180000       12.0110           0
      1656 MEMB     9        DOPC     H5R      HAL2     0.900000E-01   1.00800           0
      1657 MEMB     9        DOPC     H5S      HAL2     0.900000E-01   1.00800           0
      1658 MEMB     9        DOPC     C26      CTL2    -0.180000       12.0110           0
      1659 MEMB     9        DOPC     H6R      HAL2     0.900000E-01   1.00800           0
      1660 MEMB     9        DOPC     H6S      HAL2     0.900000E-01   1.00800           0
      1661 MEMB     9        DOPC     C27      CTL2    -0.180000       12.0110           0
      1662 MEMB     9        DOPC     H7R      HAL2     0.900000E-01   1.00800           0
      1663 MEMB     9        DOPC     H7S      HAL2     0.900000E-01   1.00800           0
      1664 MEMB     9        DOPC     C28      CTL2    -0.180000       12.0110           0
      1665 MEMB     9        DOPC     H8R      HAL2     0.900000E-01   1.00800           0
      1666 MEMB     9        DOPC     H8S      HAL2     0.900000E-01   1.00800           0
      1667 MEMB     9        DOPC     C29      CEL1    -0.150000       12.0110           0
      1668 MEMB     9        DOPC     H9R      HEL1     0.150000       1.00800           0
      1669 MEMB     9        DOPC     C210     CEL1    -0.150000       12.0110           0
      1670 MEMB     9        DOPC     H10R     HEL1     0.150000       1.00800           0
      1671 MEMB     9        DOPC     C211     CTL2    -0.180000       12.0110           0
      1672 MEMB     9        DOPC     H11R     HAL2     0.900000E-01   1.00800           0
      1673 MEMB     9        DOPC     H11S     HAL2     0.900000E-01   1.00800           0
      1674 MEMB     9        DOPC     C212     CTL2    -0.180000       12.0110           0
      1675 MEMB     9        DOPC     H12R     HAL2     0.900000E-01   1.00800           0
      1676 MEMB     9        DOPC     H12S     HAL2     0.900000E-01   1.00800           0
      1677 MEMB     9        DOPC     C213     CTL2    -0.180000       12.0110           0
      1678 MEMB     9        DOPC     H13R     HAL2     0.900000E-01   1.00800           0
      1679 MEMB     9        DOPC     H13S     HAL2     0.900000E-01   1.00800           0
      1680 MEMB     9        DOPC     C214     CTL2    -0.180000       12.0110           0
      1681 MEMB     9        DOPC     H14R     HAL2     0.900000E-01   1.00800           0
      1682 MEMB     9        DOPC     H14S     HAL2     0.900000E-01   1.00800           0
      1683 MEMB     9        DOPC     C215     CTL2    -0.180000       12.0110           0
      1684 MEMB     9        DOPC     H15R     HAL2     0.900000E-01   1.00800           0
      1685 MEMB     9        DOPC     H15S     HAL2     0.900000E-01   1.00800           0
      1686 MEMB     9        DOPC     C216     CTL2    -0.180000       12.0110           0
      1687 MEMB     9        DOPC     H16R     HAL2     0.900000E-01   1.00800           0
      1688 MEMB     9        DOPC     H16S     HAL2     0.900000E-01   1.00800           0
      1689 MEMB     9        DOPC     C217     CTL2    -0.180000       12.0110           0
      1690 MEMB     9        DOPC     H17R     HAL2     0.900000E-01   1.00800           0
      1691 MEMB     9        DOPC     H17S     HAL2     0.900000E-01   1.00800           0
      1692 MEMB     9        DOPC     C218     CTL3    -0.270000       12.0110           0
      1693 MEMB     9        DOPC     H18R     HAL3     0.900000E-01   1.00800           0
      1694 MEMB     9        DOPC     H18S     HAL3     0.900000E-01   1.00800           0
      1695 MEMB     9        DOPC     H18T     HAL3     0.900000E-01   1.00800           0
      1696 MEMB     9        DOPC     C33      CTL2    -0.180000       12.0110           0
      1697 MEMB     9        DOPC     H3X      HAL2     0.900000E-01   1.00800           0
      1698 MEMB     9        DOPC     H3Y      HAL2     0.900000E-01   1.00800           0
      1699 MEMB     9        DOPC     C34      CTL2    -0.180000       12.0110           0
      1700 MEMB     9        DOPC     H4X      HAL2     0.900000E-01   1.00800           0
      1701 MEMB     9        DOPC     H4Y      HAL2     0.900000E-01   1.00800           0
      1702 MEMB     9        DOPC     C35      CTL2    -0.180000       12.0110           0
      1703 MEMB     9        DOPC     H5X      HAL2     0.900000E-01   1.00800           0
      1704 MEMB     9        DOPC     H5Y      HAL2     0.900000E-01   1.00800           0
      1705 MEMB     9        DOPC     C36      CTL2    -0.180000       12.0110           0
      1706 MEMB     9        DOPC     H6X      HAL2     0.900000E-01   1.00800           0
      1707 MEMB     9        DOPC     H6Y      HAL2     0.900000E-01   1.00800           0
      1708 MEMB     9        DOPC     C37      CTL2    -0.180000       12.0110           0
      1709 MEMB     9        DOPC     H7X      HAL2     0.900000E-01   1.00800           0
      1710 MEMB     9        DOPC     H7Y      HAL2     0.900000E-01   1.00800           0
      1711 MEMB     9        DOPC     C38      CTL2    -0.180000       12.0110           0
      1712 MEMB     9        DOPC     H8X      HAL2     0.900000E-01   1.00800           0
      1713 MEMB     9        DOPC     H8Y      HAL2     0.900000E-01   1.00800           0
      1714 MEMB     9        DOPC     C39      CEL1    -0.150000       12.0110           0
      1715 MEMB     9        DOPC     H9X      HEL1     0.150000       1.00800           0
      1716 MEMB     9        DOPC     C310     CEL1    -0.150000       12.0110           0
      1717 MEMB     9        DOPC     H10X     HEL1     0.150000       1.00800           0
      1718 MEMB     9        DOPC     C311     CTL2    -0.180000       12.0110           0
      1719 MEMB     9        DOPC     H11X     HAL2     0.900000E-01   1.00800           0
      1720 MEMB     9        DOPC     H11Y     HAL2     0.900000E-01   1.00800           0
      1721 MEMB     9        DOPC     C312     CTL2    -0.180000       12.0110           0
      1722 MEMB     9        DOPC     H12X     HAL2     0.900000E-01   1.00800           0
      1723 MEMB     9        DOPC     H12Y     HAL2     0.900000E-01   1.00800           0
      1724 MEMB     9        DOPC     C313     CTL2    -0.180000       12.0110           0
      1725 MEMB     9        DOPC     H13X     HAL2     0.900000E-01   1.00800           0
      1726 MEMB     9        DOPC     H13Y     HAL2     0.900000E-01   1.00800           0
      1727 MEMB     9        DOPC     C314     CTL2    -0.180000       12.0110           0
      1728 MEMB     9        DOPC     H14X     HAL2     0.900000E-01   1.00800           0
      1729 MEMB     9        DOPC     H14Y     HAL2     0.900000E-01   1.00800           0
      1730 MEMB     9        DOPC     C315     CTL2    -0.180000       12.0110           0
      1731 MEMB     9        DOPC     H15X     HAL2     0.900000E-01   1.00800           0
      1732 MEMB     9        DOPC     H15Y     HAL2     0.900000E-01   1.00800           0
      1733 MEMB     9        DOPC     C316     CTL2    -0.180000       12.0110           0
      1734 MEMB     9        DOPC     H16X     HAL2     0.900000E-01   1.00800           0
      1735 MEMB     9        DOPC     H16Y     HAL2     0.900000E-01   1.00800           0
      1736 MEMB     9        DOPC     C317     CTL2    -0.180000       12.0110           0
      1737 MEMB     9        DOPC     H17X     HAL2     0.900000E-01   1.00800           0
      1738 MEMB     9        DOPC     H17Y     HAL2     0.900000E-01   1.00800           0
      1739 MEMB     9        DOPC     C318     CTL3    -0.270000       12.0110           0
      1740 MEMB     9        DOPC     H18X     HAL3     0.900000E-01   1.00800           0
      1741 MEMB     9        DOPC     H18Y     HAL3     0.900000E-01   1.00800           0
      1742 MEMB     9        DOPC     H18Z     HAL3     0.900000E-01   1.00800           0
      1743 MEMB     10       DOPC     N        NTL     -0.600000       14.0070           0
      1744 MEMB     10       DOPC     C12      CTL2    -0.100000       12.0110           0
      1745 MEMB     10       DOPC     H12A     HL       0.250000       1.00800           0
      1746 MEMB     10       DOPC     H12B     HL       0.250000       1.00800           0
      1747 MEMB     10       DOPC     C13      CTL5    -0.350000       12.0110           0
      1748 MEMB     10       DOPC     H13A     HL       0.250000       1.00800           0
      1749 MEMB     10       DOPC     H13B     HL       0.250000       1.00800           0
      1750 MEMB     10       DOPC     H13C     HL       0.250000       1.00800           0
      1751 MEMB     10       DOPC     C14      CTL5    -0.350000       12.0110           0
      1752 MEMB     10       DOPC     H14A     HL       0.250000       1.00800           0
      1753 MEMB     10       DOPC     H14B     HL       0.250000       1.00800           0
      1754 MEMB     10       DOPC     H14C     HL       0.250000       1.00800           0
      1755 MEMB     10       DOPC     C15      CTL5    -0.350000       12.0110           0
      1756 MEMB     10       DOPC     H15A     HL       0.250000       1.00800           0
      1757 MEMB     10       DOPC     H15B     HL       0.250000       1.00800           0
      1758 MEMB     10       DOPC     H15C     HL       0.250000       1.00800           0
      1759 MEMB     10       DOPC     C11      CTL2    -0.800000E-01   12.0110           0
      1760 MEMB     10       DOPC     H11A     HAL2     0.900000E-01   1.00800           0
      1761 MEMB     10       DOPC     H11B     HAL2     0.900000E-01   1.00800           0
      1762 MEMB     10       DOPC     P        PL        1.50000       30.9740           0
      1763 MEMB     10       DOPC     O13      O2L     -0.780000       15.9994           0
      1764 MEMB     10       DOPC     O14      O2L     -0.780000       15.9994           0
      1765 MEMB     10       DOPC     O12      OSLP    -0.570000       15.9994           0
      1766 MEMB     10       DOPC     O11      OSLP    -0.570000       15.9994           0
      1767 MEMB     10       DOPC     C1       CTL2    -0.800000E-01   12.0110           0
      1768 MEMB     10       DOPC     HA       HAL2     0.900000E-01   1.00800           0
      1769 MEMB     10       DOPC     HB       HAL2     0.900000E-01   1.00800           0
      1770 MEMB     10       DOPC     C2       CTL1     0.170000       12.0110           0
      1771 MEMB     10       DOPC     HS       HAL1     0.900000E-01   1.00800           0
      1772 MEMB     10       DOPC     O21      OSL     -0.490000       15.9994           0
      1773 MEMB     10       DOPC     C21      CL       0.900000       12.0110           0
      1774 MEMB     10       DOPC     O22      OBL     -0.630000       15.9994           0
      1775 MEMB     10       DOPC     C22      CTL2    -0.220000       12.0110           0
      1776 MEMB     10       DOPC     H2R      HAL2     0.900000E-01   1.00800           0
      1777 MEMB     10       DOPC     H2S      HAL2     0.900000E-01   1.00800           0
      1778 MEMB     10       DOPC     C3       CTL2     0.800000E-01   12.0110           0
      1779 MEMB     10       DOPC     HX       HAL2     0.900000E-01   1.00800           0
      1780 MEMB     10       DOPC     HY       HAL2     0.900000E-01   1.00800           0
      1781 MEMB     10       DOPC     O31      OSL     -0.490000       15.9994           0
      1782 MEMB     10       DOPC     C31      CL       0.900000       12.0110           0
      1783 MEMB     10       DOPC     O32      OBL     -0.630000       15.9994           0
      1784 MEMB     10       DOPC     C32      CTL2    -0.220000       12.0110           0
      1785 MEMB     10       DOPC     H2X      HAL2     0.900000E-01   1.00800           0
      1786 MEMB     10       DOPC     H2Y      HAL2     0.900000E-01   1.00800           0
      1787 MEMB     10       DOPC     C23      CTL2    -0.180000       12.0110           0
      1788 MEMB     10       DOPC     H3R      HAL2     0.900000E-01   1.00800           0
      1789 MEMB     10       DOPC     H3S      HAL2     0.900000E-01   1.00800           0
      1790 MEMB     10       DOPC     C24      CTL2    -0.180000       12.0110           0
      1791 MEMB     10       DOPC     H4R      HAL2     0.900000E-01   1.00800           0
      1792 MEMB     10       DOPC     H4S      HAL2     0.900000E-01   1.00800           0
      1793 MEMB     10       DOPC     C25      CTL2    -0.180000       12.0110           0
      1794 MEMB     10       DOPC     H5R      HAL2     0.900000E-01   1.00800           0
      1795 MEMB     10       DOPC     H5S      HAL2     0.900000E-01   1.00800           0
      1796 MEMB     10       DOPC     C26      CTL2    -0.180000       12.0110           0
      1797 MEMB     10       DOPC     H6R      HAL2     0.900000E-01   1.00800           0
      1798 MEMB     10       DOPC     H6S      HAL2     0.900000E-01   1.00800           0
      1799 MEMB     10       DOPC     C27      CTL2    -0.180000       12.0110           0
      1800 MEMB     10       DOPC     H7R      HAL2     0.900000E-01   1.00800           0
      1801 MEMB     10       DOPC     H7S      HAL2     0.900000E-01   1.00800           0
      1802 MEMB     10       DOPC     C28      CTL2    -0.180000       12.0110           0
      1803 MEMB     10       DOPC     H8R      HAL2     0.900000E-01   1.00800           0
      1804 MEMB     10       DOPC     H8S      HAL2     0.900000E-01   1.00800           0
      1805 MEMB     10       DOPC     C29      CEL1    -0.150000       12.0110           0
      1806 MEMB     10       DOPC     H9R      HEL1     0.150000       1.00800           0
      1807 MEMB     10       DOPC     C210     CEL1    -0.150000       12.0110           0
      1808 MEMB     10       DOPC     H10R     HEL1     0.150000       1.00800           0
      1809 MEMB     10       DOPC     C211     CTL2    -0.180000       12.0110           0
      1810 MEMB     10       DOPC     H11R     HAL2     0.900000E-01   1.00800           0
      1811 MEMB     10       DOPC     H11S     HAL2     0.900000E-01   1.00800           0
      1812 MEMB     10       DOPC     C212     CTL2    -0.180000       12.0110           0
      1813 MEMB     10       DOPC     H12R     HAL2     0.900000E-01   1.00800           0
      1814 MEMB     10       DOPC     H12S     HAL2     0.900000E-01   1.00800           0
      1815 MEMB     10       DOPC     C213     CTL2    -0.180000       12.0110           0
      1816 MEMB     10       DOPC     H13R     HAL2     0.900000E-01   1.00800           0
      1817 MEMB     10       DOPC     H13S     HAL2     0.900000E-01   1.00800           0
      1818 MEMB     10       DOPC     C214     CTL2    -0.180000       12.0110           0
      1819 MEMB     10       DOPC     H14R     HAL2     0.900000E-01   1.00800           0
      1820 MEMB     10       DOPC     H14S     HAL2     0.900000E-01   1.00800           0
      1821 MEMB     10       DOPC     C215     CTL2    -0.180000       12.0110           0
      1822 MEMB     10       DOPC     H15R     HAL2     0.900000E-01   1.00800           0
      1823 MEMB     10       DOPC     H15S     HAL2     0.900000E-01   1.00800           0
      1824 MEMB     10       DOPC     C216     CTL2    -0.180000       12.0110           0
      1825 MEMB     10       DOPC     H16R     HAL2     0.900000E-01   1.00800           0
      1826 MEMB     10       DOPC     H16S     HAL2     0.900000E-01   1.00800           0
      1827 MEMB     10       DOPC     C217     CTL2    -0.180000       12.0110           0
      1828 MEMB     10       DOPC     H17R     HAL2     0.900000E-01   1.00800           0
      1829 MEMB     10       DOPC     H17S     HAL2     0.900000E-01   1.00800           0
      1830 MEMB     10       DOPC     C218     CTL3    -0.270000       12.0110           0
      1831 MEMB     10       DOPC     H18R     HAL3     0.900000E-01   1.00800           0
      1832 MEMB     10       DOPC     H18S     HAL3     0.900000E-01   1.00800           0
      1833 MEMB     10       DOPC     H18T     HAL3     0.900000E-01   1.00800           0
      1834 MEMB     10       DOPC     C33      CTL2    -0.180000       12.0110           0
      1835 MEMB     10       DOPC     H3X      HAL2     0.900000E-01   1.00800           0
      1836 MEMB     10       DOPC     H3Y      HAL2     0.900000E-01   1.00800           0
      1837 MEMB     10       DOPC     C34      CTL2    -0.180000       12.0110           0
      1838 MEMB     10       DOPC     H4X      HAL2     0.900000E-01   1.00800           0
      1839 MEMB     10       DOPC     H4Y      HAL2     0.900000E-01   1.00800           0
      1840 MEMB     10       DOPC     C35      CTL2    -0.180000       12.0110           0
      1841 MEMB     10       DOPC     H5X      HAL2     0.900000E-01   1.00800           0
      1842 MEMB     10       DOPC     H5Y      HAL2     0.900000E-01   1.00800           0
      1843 MEMB     10       DOPC     C36      CTL2    -0.180000       12.0110           0
      1844 MEMB     10       DOPC     H6X      HAL2     0.900000E-01   1.00800           0
      1845 MEMB     10       DOPC     H6Y      HAL2     0.900000E-01   1.00800           0
      1846 MEMB     10       DOPC     C37      CTL2    -0.180000       12.0110           0
      1847 MEMB     10       DOPC     H7X      HAL2     0.900000E-01   1.00800           0
      1848 MEMB     10       DOPC     H7Y      HAL2     0.900000E-01   1.00800           0
      1849 MEMB     10       DOPC     C38      CTL2    -0.180000       12.0110           0
      1850 MEMB     10       DOPC     H8X      HAL2     0.900000E-01   1.00800           0
      1851 MEMB     10       DOPC     H8Y      HAL2     0.900000E-01   1.00800           0
      1852 MEMB     10       DOPC     C39      CEL1    -0.150000       12.0110           0
      1853 MEMB     10       DOPC     H9X      HEL1     0.150000       1.00800           0
      1854 MEMB     10       DOPC     C310     CEL1    -0.150000       12.0110           0
      1855 MEMB     10       DOPC     H10X     HEL1     0.150000       1.00800           0
      1856 MEMB     10       DOPC     C311     CTL2    -0.180000       12.0110           0
      1857 MEMB     10       DOPC     H11X     HAL2     0.900000E-01   1.00800           0
      1858 MEMB     10       DOPC     H11Y     HAL2     0.900000E-01   1.00800           0
      1859 MEMB     10       DOPC     C312     CTL2    -0.180000       12.0110           0
      1860 MEMB     10       DOPC     H12X     HAL2     0.900000E-01   1.00800           0
      1861 MEMB     10       DOPC     H12Y     HAL2     0.900000E-01   1.00800           0
      1862 MEMB     10       DOPC     C313     CTL2    -0.180000       12.0110           0
      1863 MEMB     10       DOPC     H13X     HAL2     0.900000E-01   1.00800           0
      1864 MEMB     10       DOPC     H13Y     HAL2     0.900000E-01   1.00800           0
      1865 MEMB     10       DOPC     C314     CTL2    -0.180000       12.0110           0
      1866 MEMB     10       DOPC     H14X     HAL2     0.900000E-01   1.00800           0
      1867 MEMB     10       DOPC     H14Y     HAL2     0.900000E-01   1.00800           0
      1868 MEMB     10       DOPC     C315     CTL2    -0.180000       12.0110           0
      1869 MEMB     10       DOPC     H15X     HAL2     0.900000E-01   1.00800           0
      1870 MEMB     10       DOPC     H15Y     HAL2     0.900000E-01   1.00800           0
      1871 MEMB     10       DOPC     C316     CTL2    -0.180000       12.0110           0
      1872 MEMB     10       DOPC     H16X     HAL2     0.900000E-01   1.00800           0
      1873 MEMB     10       DOPC     H16Y     HAL2     0.900000E-01   1.00800           0
      1874 MEMB     10       DOPC     C317     CTL2    -0.180000       12.0110           0
      1875 MEMB     10       DOPC     H17X     HAL2     0.900000E-01   1.00800           0
      1876 MEMB     10       DOPC     H17Y     HAL2     0.900000E-01   1.00800           0
      1877 MEMB     10       DOPC     C318     CTL3    -0.270000       12.0110           0
      1878 MEMB     10       DOPC     H18X     HAL3     0.900000E-01   1.00800           0
      1879 MEMB     10       DOPC     H18Y     HAL3     0.900000E-01   1.00800           0
      1880 MEMB     10       DOPC     H18Z     HAL3     0.900000E-01   1.00800           0
      1881 MEMB     11       DOPC     N        NTL     -0.600000       14.0070           0
      1882 MEMB     11       DOPC     C12      CTL2    -0.100000       12.0110           0
      1883 MEMB     11       DOPC     H12A     HL       0.250000       1.00800           0
      1884 MEMB     11       DOPC     H12B     HL       0.250000       1.00800           0
      1885 MEMB     11       DOPC     C13      CTL5    -0.350000       12.0110           0
      1886 MEMB     11       DOPC     H13A     HL       0.250000       1.00800           0
      1887 MEMB     11       DOPC     H13B     HL       0.250000       1.00800           0
      1888 MEMB     11       DOPC     H13C     HL       0.250000       1.00800           0
      1889 MEMB     11       DOPC     C14      CTL5    -0.350000       12.0110           0
      1890 MEMB     11       DOPC     H14A     HL       0.250000       1.00800           0
      1891 MEMB     11       DOPC     H14B     HL       0.250000       1.00800           0
      1892 MEMB     11       DOPC     H14C     HL       0.250000       1.00800           0
      1893 MEMB     11       DOPC     C15      CTL5    -0.350000       12.0110           0
      1894 MEMB     11       DOPC     H15A     HL       0.250000       1.00800           0
      1895 MEMB     11       DOPC     H15B     HL       0.250000       1.00800           0
      1896 MEMB     11       DOPC     H15C     HL       0.250000       1.00800           0
      1897 MEMB     11       DOPC     C11      CTL2    -0.800000E-01   12.0110           0
      1898 MEMB     11       DOPC     H11A     HAL2     0.900000E-01   1.00800           0
      1899 MEMB     11       DOPC     H11B     HAL2     0.900000E-01   1.00800           0
      1900 MEMB     11       DOPC     P        PL        1.50000       30.9740           0
      1901 MEMB     11       DOPC     O13      O2L     -0.780000       15.9994           0
      1902 MEMB     11       DOPC     O14      O2L     -0.780000       15.9994           0
      1903 MEMB     11       DOPC     O12      OSLP    -0.570000       15.9994           0
      1904 MEMB     11       DOPC     O11      OSLP    -0.570000       15.9994           0
      1905 MEMB     11       DOPC     C1       CTL2    -0.800000E-01   12.0110           0
      1906 MEMB     11       DOPC     HA       HAL2     0.900000E-01   1.00800           0
      1907 MEMB     11       DOPC     HB       HAL2     0.900000E-01   1.00800           0
      1908 MEMB     11       DOPC     C2       CTL1     0.170000       12.0110           0
      1909 MEMB     11       DOPC     HS       HAL1     0.900000E-01   1.00800           0
      1910 MEMB     11       DOPC     O21      OSL     -0.490000       15.9994           0
      1911 MEMB     11       DOPC     C21      CL       0.900000       12.0110           0
      1912 MEMB     11       DOPC     O22      OBL     -0.630000       15.9994           0
      1913 MEMB     11       DOPC     C22      CTL2    -0.220000       12.0110           0
      1914 MEMB     11       DOPC     H2R      HAL2     0.900000E-01   1.00800           0
      1915 MEMB     11       DOPC     H2S      HAL2     0.900000E-01   1.00800           0
      1916 MEMB     11       DOPC     C3       CTL2     0.800000E-01   12.0110           0
      1917 MEMB     11       DOPC     HX       HAL2     0.900000E-01   1.00800           0
      1918 MEMB     11       DOPC     HY       HAL2     0.900000E-01   1.00800           0
      1919 MEMB     11       DOPC     O31      OSL     -0.490000       15.9994           0
      1920 MEMB     11       DOPC     C31      CL       0.900000       12.0110           0
      1921 MEMB     11       DOPC     O32      OBL     -0.630000       15.9994           0
      1922 MEMB     11       DOPC     C32      CTL2    -0.220000       12.0110           0
      1923 MEMB     11       DOPC     H2X      HAL2     0.900000E-01   1.00800           0
      1924 MEMB     11       DOPC     H2Y      HAL2     0.900000E-01   1.00800           0
      1925 MEMB     11       DOPC     C23      CTL2    -0.180000       12.0110           0
      1926 MEMB     11       DOPC     H3R      HAL2     0.900000E-01   1.00800           0
      1927 MEMB     11       DOPC     H3S      HAL2     0.900000E-01   1.00800           0
      1928 MEMB     11       DOPC     C24      CTL2    -0.180000       12.0110           0
      1929 MEMB     11       DOPC     H4R      HAL2     0.900000E-01   1.00800           0
      1930 MEMB     11       DOPC     H4S      HAL2     0.900000E-01   1.00800           0
      1931 MEMB     11       DOPC     C25      CTL2    -0.180000       12.0110           0
      1932 MEMB     11       DOPC     H5R      HAL2     0.900000E-01   1.00800           0
      1933 MEMB     11       DOPC     H5S      HAL2     0.900000E-01   1.00800           0
      1934 MEMB     11       DOPC     C26      CTL2    -0.180000       12.0110           0
      1935 MEMB     11       DOPC     H6R      HAL2     0.900000E-01   1.00800           0
      1936 MEMB     11       DOPC     H6S      HAL2     0.900000E-01   1.00800           0
      1937 MEMB     11       DOPC     C27      CTL2    -0.180000       12.0110           0
      1938 MEMB     11       DOPC     H7R      HAL2     0.900000E-01   1.00800           0
      1939 MEMB     11       DOPC     H7S      HAL2     0.900000E-01   1.00800           0
      1940 MEMB     11       DOPC     C28      CTL2    -0.180000       12.0110           0
      1941 MEMB     11       DOPC     H8R      HAL2     0.900000E-01   1.00800           0
      1942 MEMB     11       DOPC     H8S      HAL2     0.900000E-01   1.00800           0
      1943 MEMB     11       DOPC     C29      CEL1    -0.150000       12.0110           0
      1944 MEMB     11       DOPC     H9R      HEL1     0.150000       1.00800           0
      1945 MEMB     11       DOPC     C210     CEL1    -0.150000       12.0110           0
      1946 MEMB     11       DOPC     H10R     HEL1     0.150000       1.00800           0
      1947 MEMB     11       DOPC     C211     CTL2    -0.180000       12.0110           0
      1948 MEMB     11       DOPC     H11R     HAL2     0.900000E-01   1.00800           0
      1949 MEMB     11       DOPC     H11S     HAL2     0.900000E-01   1.00800           0
      1950 MEMB     11       DOPC     C212     CTL2    -0.180000       12.0110           0
      1951 MEMB     11       DOPC     H12R     HAL2     0.900000E-01   1.00800           0
      1952 MEMB     11       DOPC     H12S     HAL2     0.900000E-01   1.00800           0
      1953 MEMB     11       DOPC     C213     CTL2    -0.180000       12.0110           0
      1954 MEMB     11       DOPC     H13R     HAL2     0.900000E-01   1.00800           0
      1955 MEMB     11       DOPC     H13S     HAL2     0.900000E-01   1.00800           0
      1956 MEMB     11       DOPC     C214     CTL2    -0.180000       12.0110           0
      1957 MEMB     11       DOPC     H14R     HAL2     0.900000E-01   1.00800           0
      1958 MEMB     11       DOPC     H14S     HAL2     0.900000E-01   1.00800           0
      1959 MEMB     11       DOPC     C215     CTL2    -0.180000       12.0110           0
      1960 MEMB     11       DOPC     H15R     HAL2     0.900000E-01   1.00800           0
      1961 MEMB     11       DOPC     H15S     HAL2     0.900000E-01   1.00800           0
      1962 MEMB     11       DOPC     C216     CTL2    -0.180000       12.0110           0
      1963 MEMB     11       DOPC     H16R     HAL2     0.900000E-01   1.00800           0
      1964 MEMB     11       DOPC     H16S     HAL2     0.900000E-01   1.00800           0
      1965 MEMB     11       DOPC     C217     CTL2    -0.180000       12.0110           0
      1966 MEMB     11       DOPC     H17R     HAL2     0.900000E-01   1.00800           0
      1967 MEMB     11       DOPC     H17S     HAL2     0.900000E-01   1.00800           0
      1968 MEMB     11       DOPC     C218     CTL3    -0.270000       12.0110           0
      1969 MEMB     11       DOPC     H18R     HAL3     0.900000E-01   1.00800           0
      1970 MEMB     11       DOPC     H18S     HAL3     0.900000E-01   1.00800           0
      1971 MEMB     11       DOPC     H18T     HAL3     0.900000E-01   1.00800           0
      1972 MEMB     11       DOPC     C33      CTL2    -0.180000       12.0110           0
      1973 MEMB     11       DOPC     H3X      HAL2     0.900000E-01   1.00800           0
      1974 MEMB     11       DOPC     H3Y      HAL2     0.900000E-01   1.00800           0
      1975 MEMB     11       DOPC     C34      CTL2    -0.180000       12.0110           0
      1976 MEMB     11       DOPC     H4X      HAL2     0.900000E-01   1.00800           0
      1977 MEMB     11       DOPC     H4Y      HAL2     0.900000E-01   1.00800           0
      1978 MEMB     11       DOPC     C35      CTL2    -0.180000       12.0110           0
      1979 MEMB     11       DOPC     H5X      HAL2     0.900000E-01   1.00800           0
      1980 MEMB     11       DOPC     H5Y      HAL2     0.900000E-01   1.00800           0
      1981 MEMB     11       DOPC     C36      CTL2    -0.180000       12.0110           0
      1982 MEMB     11       DOPC     H6X      HAL2     0.900000E-01   1.00800           0
      1983 MEMB     11       DOPC     H6Y      HAL2     0.900000E-01   1.00800           0
      1984 MEMB     11       DOPC     C37      CTL2    -0.180000       12.0110           0
      1985 MEMB     11       DOPC     H7X      HAL2     0.900000E-01   1.00800           0
      1986 MEMB     11       DOPC     H7Y      HAL2     0.900000E-01   1.00800           0
      1987 MEMB     11       DOPC     C38      CTL2    -0.180000       12.0110           0
      1988 MEMB     11       DOPC     H8X      HAL2     0.900000E-01   1.00800           0
      1989 MEMB     11       DOPC     H8Y      HAL2     0.900000E-01   1.00800           0
      1990 MEMB     11       DOPC     C39      CEL1    -0.150000       12.0110           0
      1991 MEMB     11       DOPC     H9X      HEL1     0.150000       1.00800           0
      1992 MEMB     11       DOPC     C310     CEL1    -0.150000       12.0110           0
      1993 MEMB     11       DOPC     H10X     HEL1     0.150000       1.00800           0
      1994 MEMB     11       DOPC     C311     CTL2    -0.180000       12.0110           0
      1995 MEMB     11       DOPC     H11X     HAL2     0.900000E-01   1.00800           0
      1996 MEMB     11       DOPC     H11Y     HAL2     0.900000E-01   1.00800           0
      1997 MEMB     11       DOPC     C312     CTL2    -0.180000       12.0110           0
      1998 MEMB     11       DOPC     H12X     HAL2     0.900000E-01   1.00800           0
      1999 MEMB     11       DOPC     H12Y     HAL2     0.900000E-01   1.00800           0
      2000 MEMB     11       DOPC     C313     CTL2    -0.180000       12.0110           0
      2001 MEMB     11       DOPC     H13X     HAL2     0.900000E-01   1.00800           0
      2002 MEMB     11       DOPC     H13Y     HAL2     0.900000E-01   1.00800           0
      2003 MEMB     11       DOPC     C314     CTL2    -0.180000       12.0110           0
      2004 MEMB     11       DOPC     H14X     HAL2     0.900000E-01   1.00800           0
      2005 MEMB     11       DOPC     H14Y     HAL2     0.900000E-01   1.00800           0
      2006 MEMB     11       DOPC     C315     CTL2    -0.180000       12.0110           0
      2007 MEMB     11       DOPC     H15X     HAL2     0.900000E-01   1.00800           0
      2008 MEMB     11       DOPC     H15Y     HAL2     0.900000E-01   1.00800           0
      2009 MEMB     11       DOPC     C316     CTL2    -0.180000       12.0110           0
      2010 MEMB     11       DOPC     H16X     HAL2     0.900000E-01   1.00800           0
      2011 MEMB     11       DOPC     H16Y     HAL2     0.900000E-01   1.00800           0
      2012 MEMB     11       DOPC     C317     CTL2    -0.180000       12.0110           0
      2013 MEMB     11       DOPC     H17X     HAL2     0.900000E-01   1.00800           0
      2014 MEMB     11       DOPC     H17Y     HAL2     0.900000E-01   1.00800           0
      2015 MEMB     11       DOPC     C318     CTL3    -0.270000       12.0110           0
      2016 MEMB     11       DOPC     H18X     HAL3     0.900000E-01   1.00800           0
      2017 MEMB     11       DOPC     H18Y     HAL3     0.900000E-01   1.00800           0
      2018 MEMB     11       DOPC     H18Z     HAL3     0.900000E-01   1.00800           0
      2019 MEMB     12       DOPC     N        NTL     -0.600000       14.0070           0
      2020 MEMB     12       DOPC     C12      CTL2    -0.100000       12.0110           0
      2021 MEMB     12       DOPC     H12A     HL       0.250000       1.00800           0
      2022 MEMB     12       DOPC     H12B     HL       0.250000       1.00800           0
      2023 MEMB     12       DOPC     C13      CTL5    -0.350000       12.0110           0
      2024 MEMB     12       DOPC     H13A     HL       0.250000       1.00800           0
      2025 MEMB     12       DOPC     H13B     HL       0.250000       1.00800           0
      2026 MEMB     12       DOPC     H13C     HL       0.250000       1.00800           0
      2027 MEMB     12       DOPC     C14      CTL5    -0.350000       12.0110           0
      2028 MEMB     12       DOPC     H14A     HL       0.250000       1.00800           0
      2029 MEMB     12       DOPC     H14B     HL       0.250000       1.00800           0
      2030 MEMB     12       DOPC     H14C     HL       0.250000       1.00800           0
      2031 MEMB     12       DOPC     C15      CTL5    -0.350000       12.0110           0
      2032 MEMB     12       DOPC     H15A     HL       0.250000       1.00800           0
      2033 MEMB     12       DOPC     H15B     HL       0.250000       1.00800           0
      2034 MEMB     12       DOPC     H15C     HL       0.250000       1.00800           0
      2035 MEMB     12       DOPC     C11      CTL2    -0.800000E-01   12.0110           0
      2036 MEMB     12       DOPC     H11A     HAL2     0.900000E-01   1.00800           0
      2037 MEMB     12       DOPC     H11B     HAL2     0.900000E-01   1.00800           0
      2038 MEMB     12       DOPC     P        PL        1.50000       30.9740           0
      2039 MEMB     12       DOPC     O13      O2L     -0.780000       15.9994           0
      2040 MEMB     12       DOPC     O14      O2L     -0.780000       15.9994           0
      2041 MEMB     12       DOPC     O12      OSLP    -0.570000       15.9994           0
      2042 MEMB     12       DOPC     O11      OSLP    -0.570000       15.9994           0
      2043 MEMB     12       DOPC     C1       CTL2    -0.800000E-01   12.0110           0
      2044 MEMB     12       DOPC     HA       HAL2     0.900000E-01   1.00800           0
      2045 MEMB     12       DOPC     HB       HAL2     0.900000E-01   1.00800           0
      2046 MEMB     12       DOPC     C2       CTL1     0.170000       12.0110           0
      2047 MEMB     12       DOPC     HS       HAL1     0.900000E-01   1.00800           0
      2048 MEMB     12       DOPC     O21      OSL     -0.490000       15.9994           0
      2049 MEMB     12       DOPC     C21      CL       0.900000       12.0110           0
      2050 MEMB     12       DOPC     O22      OBL     -0.630000       15.9994           0
      2051 MEMB     12       DOPC     C22      CTL2    -0.220000       12.0110           0
      2052 MEMB     12       DOPC     H2R      HAL2     0.900000E-01   1.00800           0
      2053 MEMB     12       DOPC     H2S      HAL2     0.900000E-01   1.00800           0
      2054 MEMB     12       DOPC     C3       CTL2     0.800000E-01   12.0110           0
      2055 MEMB     12       DOPC     HX       HAL2     0.900000E-01   1.00800           0
      2056 MEMB     12       DOPC     HY       HAL2     0.900000E-01   1.00800           0
      2057 MEMB     12       DOPC     O31      OSL     -0.490000       15.9994           0
      2058 MEMB     12       DOPC     C31      CL       0.900000       12.0110           0
      2059 MEMB     12       DOPC     O32      OBL     -0.630000       15.9994           0
      2060 MEMB     12       DOPC     C32      CTL2    -0.220000       12.0110           0
      2061 MEMB     12       DOPC     H2X      HAL2     0.900000E-01   1.00800           0
      2062 MEMB     12       DOPC     H2Y      HAL2     0.900000E-01   1.00800           0
      2063 MEMB     12       DOPC     C23      CTL2    -0.180000       12.0110           0
      2064 MEMB     12       DOPC     H3R      HAL2     0.900000E-01   1.00800           0
      2065 MEMB     12       DOPC     H3S      HAL2     0.900000E-01   1.00800           0
      2066 MEMB     12       DOPC     C24      CTL2    -0.180000       12.0110           0
      2067 MEMB     12       DOPC     H4R      HAL2     0.900000E-01   1.00800           0
      2068 MEMB     12       DOPC     H4S      HAL2     0.900000E-01   1.00800           0
      2069 MEMB     12       DOPC     C25      CTL2    -0.180000       12.0110           0
      2070 MEMB     12       DOPC     H5R      HAL2     0.900000E-01   1.00800           0
      2071 MEMB     12       DOPC     H5S      HAL2     0.900000E-01   1.00800           0
      2072 MEMB     12       DOPC     C26      CTL2    -0.180000       12.0110           0
      2073 MEMB     12       DOPC     H6R      HAL2     0.900000E-01   1.00800           0
      2074 MEMB     12       DOPC     H6S      HAL2     0.900000E-01   1.00800           0
      2075 MEMB     12       DOPC     C27      CTL2    -0.180000       12.0110           0
      2076 MEMB     12       DOPC     H7R      HAL2     0.900000E-01   1.00800           0
      2077 MEMB     12       DOPC     H7S      HAL2     0.900000E-01   1.00800           0
      2078 MEMB     12       DOPC     C28      CTL2    -0.180000       12.0110           0
      2079 MEMB     12       DOPC     H8R      HAL2     0.900000E-01   1.00800           0
      2080 MEMB     12       DOPC     H8S      HAL2     0.900000E-01   1.00800           0
      2081 MEMB     12       DOPC     C29      CEL1    -0.150000       12.0110           0
      2082 MEMB     12       DOPC     H9R      HEL1     0.150000       1.00800           0
      2083 MEMB     12       DOPC     C210     CEL1    -0.150000       12.0110           0
      2084 MEMB     12       DOPC     H10R     HEL1     0.150000       1.00800           0
      2085 MEMB     12       DOPC     C211     CTL2    -0.180000       12.0110           0
      2086 MEMB     12       DOPC     H11R     HAL2     0.900000E-01   1.00800           0
      2087 MEMB     12       DOPC     H11S     HAL2     0.900000E-01   1.00800           0
      2088 MEMB     12       DOPC     C212     CTL2    -0.180000       12.0110           0
      2089 MEMB     12       DOPC     H12R     HAL2     0.900000E-01   1.00800           0
      2090 MEMB     12       DOPC     H12S     HAL2     0.900000E-01   1.00800           0
      2091 MEMB     12       DOPC     C213     CTL2    -0.180000       12.0110           0
      2092 MEMB     12       DOPC     H13R     HAL2     0.900000E-01   1.00800           0
      2093 MEMB     12       DOPC     H13S     HAL2     0.900000E-01   1.00800           0
      2094 MEMB     12       DOPC     C214     CTL2    -0.180000       12.0110           0
      2095 MEMB     12       DOPC     H14R     HAL2     0.900000E-01   1.00800           0
      2096 MEMB     12       DOPC     H14S     HAL2     0.900000E-01   1.00800           0
      2097 MEMB     12       DOPC     C215     CTL2    -0.180000       12.0110           0
      2098 MEMB     12       DOPC     H15R     HAL2     0.900000E-01   1.00800           0
      2099 MEMB     12       DOPC     H15S     HAL2     0.900000E-01   1.00800           0
      2100 MEMB     12       DOPC     C216     CTL2    -0.180000       12.0110           0
      2101 MEMB     12       DOPC     H16R     HAL2     0.900000E-01   1.00800           0
      2102 MEMB     12       DOPC     H16S     HAL2     0.900000E-01   1.00800           0
      2103 MEMB     12       DOPC     C217     CTL2    -0.180000       12.0110           0
      2104 MEMB     12       DOPC     H17R     HAL2     0.900000E-01   1.00800           0
      2105 MEMB     12       DOPC     H17S     HAL2     0.900000E-01   1.00800           0
      2106 MEMB     12       DOPC     C218     CTL3    -0.270000       12.0110           0
      2107 MEMB     12       DOPC     H18R     HAL3     0.900000E-01   1.00800           0
      2108 MEMB     12       DOPC     H18S     HAL3     0.900000E-01   1.00800           0
      2109 MEMB     12       DOPC     H18T     HAL3     0.900000E-01   1.00800           0
      2110 MEMB     12       DOPC     C33      CTL2    -0.180000       12.0110           0
      2111 MEMB     12       DOPC     H3X      HAL2     0.900000E-01   1.00800           0
      2112 MEMB     12       DOPC     H3Y      HAL2     0.900000E-01   1.00800           0
      2113 MEMB     12       DOPC     C34      CTL2    -0.180000       12.0110           0
      2114 MEMB     12       DOPC     H4X      HAL2     0.900000E-01   1.00800           0
      2115 MEMB     12       DOPC     H4Y      HAL2     0.900000E-01   1.00800           0
      2116 MEMB     12       DOPC     C35      CTL2    -0.180000       12.0110           0
      2117 MEMB     12       DOPC     H5X      HAL2     0.900000E-01   1.00800           0
      2118 MEMB     12       DOPC     H5Y      HAL2     0.900000E-01   1.00800           0
      2119 MEMB     12       DOPC     C36      CTL2    -0.180000       12.0110           0
      2120 MEMB     12       DOPC     H6X      HAL2     0.900000E-01   1.00800           0
      2121 MEMB     12       DOPC     H6Y      HAL2     0.900000E-01   1.00800           0
      2122 MEMB     12       DOPC     C37      CTL2    -0.180000       12.0110           0
      2123 MEMB     12       DOPC     H7X      HAL2     0.900000E-01   1.00800           0
      2124 MEMB     12       DOPC     H7Y      HAL2     0.900000E-01   1.00800           0
      2125 MEMB     12       DOPC     C38      CTL2    -0.180000       12.0110           0
      2126 MEMB     12       DOPC     H8X      HAL2     0.900000E-01   1.00800           0
      2127 MEMB     12       DOPC     H8Y      HAL2     0.900000E-01   1.00800           0
      2128 MEMB     12       DOPC     C39      CEL1    -0.150000       12.0110           0
      2129 MEMB     12       DOPC     H9X      HEL1     0.150000       1.00800           0
      2130 MEMB     12       DOPC     C310     CEL1    -0.150000       12.0110           0
      2131 MEMB     12       DOPC     H10X     HEL1     0.150000       1.00800           0
      2132 MEMB     12       DOPC     C311     CTL2    -0.180000       12.0110           0
      2133 MEMB     12       DOPC     H11X     HAL2     0.900000E-01   1.00800           0
      2134 MEMB     12       DOPC     H11Y     HAL2     0.900000E-01   1.00800           0
      2135 MEMB     12       DOPC     C312     CTL2    -0.180000       12.0110           0
      2136 MEMB     12       DOPC     H12X     HAL2     0.900000E-01   1.00800           0
      2137 MEMB     12       DOPC     H12Y     HAL2     0.900000E-01   1.00800           0
      2138 MEMB     12       DOPC     C313     CTL2    -0.180000       12.0110           0
      2139 MEMB     12       DOPC     H13X     HAL2     0.900000E-01   1.00800           0
      2140 MEMB     12       DOPC     H13Y     HAL2     0.900000E-01   1.00800           0
      2141 MEMB     12       DOPC     C314     CTL2    -0.180000       12.0110           0
      2142 MEMB     12       DOPC     H14X     HAL2     0.900000E-01   1.00800           0
      2143 MEMB     12       DOPC     H14Y     HAL2     0.900000E-01   1.00800           0
      2144 MEMB     12       DOPC     C315     CTL2    -0.180000       12.0110           0
      2145 MEMB     12       DOPC     H15X     HAL2     0.900000E-01   1.00800           0
      2146 MEMB     12       DOPC     H15Y     HAL2     0.900000E-01   1.00800           0
      2147 MEMB     12       DOPC     C316     CTL2    -0.180000       12.0110           0
      2148 MEMB     12       DOPC     H16X     HAL2     0.900000E-01   1.00800           0
      2149 MEMB     12       DOPC     H16Y     HAL2     0.900000E-01   1.00800           0
      2150 MEMB     12       DOPC     C317     CTL2    -0.180000       12.0110           0
      2151 MEMB     12       DOPC     H17X     HAL2     0.900000E-01   1.00800           0
      2152 MEMB     12       DOPC     H17Y     HAL2     0.900000E-01   1.00800           0
      2153 MEMB     12       DOPC     C318     CTL3    -0.270000       12.0110           0
      2154 MEMB     12       DOPC     H18X     HAL3     0.900000E-01   1.00800           0
      2155 MEMB     12       DOPC     H18Y     HAL3     0.900000E-01   1.00800           0
      2156 MEMB     12       DOPC     H18Z     HAL3     0.900000E-01   1.00800           0
      2157 MEMB     13       DOPC     N        NTL     -0.600000       14.0070           0
      2158 MEMB     13       DOPC     C12      CTL2    -0.100000       12.0110           0
      2159 MEMB     13       DOPC     H12A     HL       0.250000       1.00800           0
      2160 MEMB     13       DOPC     H12B     HL       0.250000       1.00800           0
      2161 MEMB     13       DOPC     C13      CTL5    -0.350000       12.0110           0
      2162 MEMB     13       DOPC     H13A     HL       0.250000       1.00800           0
      2163 MEMB     13       DOPC     H13B     HL       0.250000       1.00800           0
      2164 MEMB     13       DOPC     H13C     HL       0.250000       1.00800           0
      2165 MEMB     13       DOPC     C14      CTL5    -0.350000       12.0110           0
      2166 MEMB     13       DOPC     H14A     HL       0.250000       1.00800           0
      2167 MEMB     13       DOPC     H14B     HL       0.250000       1.00800           0
      2168 MEMB     13       DOPC     H14C     HL       0.250000       1.00800           0
      2169 MEMB     13       DOPC     C15      CTL5    -0.350000       12.0110           0
      2170 MEMB     13       DOPC     H15A     HL       0.250000       1.00800           0
      2171 MEMB     13       DOPC     H15B     HL       0.250000       1.00800           0
      2172 MEMB     13       DOPC     H15C     HL       0.250000       1.00800           0
      2173 MEMB     13       DOPC     C11      CTL2    -0.800000E-01   12.0110           0
      2174 MEMB     13       DOPC     H11A     HAL2     0.900000E-01   1.00800           0
      2175 MEMB     13       DOPC     H11B     HAL2     0.900000E-01   1.00800           0
      2176 MEMB     13       DOPC     P        PL        1.50000       30.9740           0
      2177 MEMB     13       DOPC     O13      O2L     -0.780000       15.9994           0
      2178 MEMB     13       DOPC     O14      O2L     -0.780000       15.9994           0
      2179 MEMB     13       DOPC     O12      OSLP    -0.570000       15.9994           0
      2180 MEMB     13       DOPC     O11      OSLP    -0.570000       15.9994           0
      2181 MEMB     13       DOPC     C1       CTL2    -0.800000E-01   12.0110           0
      2182 MEMB     13       DOPC     HA       HAL2     0.900000E-01   1.00800           0
      2183 MEMB     13       DOPC     HB       HAL2     0.900000E-01   1.00800           0
      2184 MEMB     13       DOPC     C2       CTL1     0.170000       12.0110           0
      2185 MEMB     13       DOPC     HS       HAL1     0.900000E-01   1.00800           0
      2186 MEMB     13       DOPC     O21      OSL     -0.490000       15.9994           0
      2187 MEMB     13       DOPC     C21      CL       0.900000       12.0110           0
      2188 MEMB     13       DOPC     O22      OBL     -0.630000       15.9994           0
      2189 MEMB     13       DOPC     C22      CTL2    -0.220000       12.0110           0
      2190 MEMB     13       DOPC     H2R      HAL2     0.900000E-01   1.00800           0
      2191 MEMB     13       DOPC     H2S      HAL2     0.900000E-01   1.00800           0
      2192 MEMB     13       DOPC     C3       CTL2     0.800000E-01   12.0110           0
      2193 MEMB     13       DOPC     HX       HAL2     0.900000E-01   1.00800           0
      2194 MEMB     13       DOPC     HY       HAL2     0.900000E-01   1.00800           0
      2195 MEMB     13       DOPC     O31      OSL     -0.490000       15.9994           0
      2196 MEMB     13       DOPC     C31      CL       0.900000       12.0110           0
      2197 MEMB     13       DOPC     O32      OBL     -0.630000       15.9994           0
      2198 MEMB     13       DOPC     C32      CTL2    -0.220000       12.0110           0
      2199 MEMB     13       DOPC     H2X      HAL2     0.900000E-01   1.00800           0
      2200 MEMB     13       DOPC     H2Y      HAL2     0.900000E-01   1.00800           0
      2201 MEMB     13       DOPC     C23      CTL2    -0.180000       12.0110           0
      2202 MEMB     13       DOPC     H3R      HAL2     0.900000E-01   1.00800           0
      2203 MEMB     13       DOPC     H3S      HAL2     0.900000E-01   1.00800           0
      2204 MEMB     13       DOPC     C24      CTL2    -0.180000       12.0110           0
      2205 MEMB     13       DOPC     H4R      HAL2     0.900000E-01   1.00800           0
      2206 MEMB     13       DOPC     H4S      HAL2     0.900000E-01   1.00800           0
      2207 MEMB     13       DOPC     C25      CTL2    -0.180000       12.0110           0
      2208 MEMB     13       DOPC     H5R      HAL2     0.900000E-01   1.00800           0
      2209 MEMB     13       DOPC     H5S      HAL2     0.900000E-01   1.00800           0
      2210 MEMB     13       DOPC     C26      CTL2    -0.180000       12.0110           0
      2211 MEMB     13       DOPC     H6R      HAL2     0.900000E-01   1.00800           0
      2212 MEMB     13       DOPC     H6S      HAL2     0.900000E-01   1.00800           0
      2213 MEMB     13       DOPC     C27      CTL2    -0.180000       12.0110           0
      2214 MEMB     13       DOPC     H7R      HAL2     0.900000E-01   1.00800           0
      2215 MEMB     13       DOPC     H7S      HAL2     0.900000E-01   1.00800           0
      2216 MEMB     13       DOPC     C28      CTL2    -0.180000       12.0110           0
      2217 MEMB     13       DOPC     H8R      HAL2     0.900000E-01   1.00800           0
      2218 MEMB     13       DOPC     H8S      HAL2     0.900000E-01   1.00800           0
      2219 MEMB     13       DOPC     C29      CEL1    -0.150000       12.0110           0
      2220 MEMB     13       DOPC     H9R      HEL1     0.150000       1.00800           0
      2221 MEMB     13       DOPC     C210     CEL1    -0.150000       12.0110           0
      2222 MEMB     13       DOPC     H10R     HEL1     0.150000       1.00800           0
      2223 MEMB     13       DOPC     C211     CTL2    -0.180000       12.0110           0
      2224 MEMB     13       DOPC     H11R     HAL2     0.900000E-01   1.00800           0
      2225 MEMB     13       DOPC     H11S     HAL2     0.900000E-01   1.00800           0
      2226 MEMB     13       DOPC     C212     CTL2    -0.180000       12.0110           0
      2227 MEMB     13       DOPC     H12R     HAL2     0.900000E-01   1.00800           0
      2228 MEMB     13       DOPC     H12S     HAL2     0.900000E-01   1.00800           0
      2229 MEMB     13       DOPC     C213     CTL2    -0.180000       12.0110           0
      2230 MEMB     13       DOPC     H13R     HAL2     0.900000E-01   1.00800           0
      2231 MEMB     13       DOPC     H13S     HAL2     0.900000E-01   1.00800           0
      2232 MEMB     13       DOPC     C214     CTL2    -0.180000       12.0110           0
      2233 MEMB     13       DOPC     H14R     HAL2     0.900000E-01   1.00800           0
      2234 MEMB     13       DOPC     H14S     HAL2     0.900000E-01   1.00800           0
      2235 MEMB     13       DOPC     C215     CTL2    -0.180000       12.0110           0
      2236 MEMB     13       DOPC     H15R     HAL2     0.900000E-01   1.00800           0
      2237 MEMB     13       DOPC     H15S     HAL2     0.900000E-01   1.00800           0
      2238 MEMB     13       DOPC     C216     CTL2    -0.180000       12.0110           0
      2239 MEMB     13       DOPC     H16R     HAL2     0.900000E-01   1.00800           0
      2240 MEMB     13       DOPC     H16S     HAL2     0.900000E-01   1.00800           0
      2241 MEMB     13       DOPC     C217     CTL2    -0.180000       12.0110           0
      2242 MEMB     13       DOPC     H17R     HAL2     0.900000E-01   1.00800           0
      2243 MEMB     13       DOPC     H17S     HAL2     0.900000E-01   1.00800           0
      2244 MEMB     13       DOPC     C218     CTL3    -0.270000       12.0110           0
      2245 MEMB     13       DOPC     H18R     HAL3     0.900000E-01   1.00800           0
      2246 MEMB     13       DOPC     H18S     HAL3     0.900000E-01   1.00800           0
      2247 MEMB     13       DOPC     H18T     HAL3     0.900000E-01   1.00800           0
      2248 MEMB     13       DOPC     C33      CTL2    -0.180000       12.0110           0
      2249 MEMB     13       DOPC     H3X      HAL2     0.900000E-01   1.00800           0
      2250 MEMB     13       DOPC     H3Y      HAL2     0.900000E-01   1.00800           0
      2251 MEMB     13       DOPC     C34      CTL2    -0.180000       12.0110           0
      2252 MEMB     13       DOPC     H4X      HAL2     0.900000E-01   1.00800           0
      2253 MEMB     13       DOPC     H4Y      HAL2     0.900000E-01   1.00800           0
      2254 MEMB     13       DOPC     C35      CTL2    -0.180000       12.0110           0
      2255 MEMB     13       DOPC     H5X      HAL2     0.900000E-01   1.00800           0
      2256 MEMB     13       DOPC     H5Y      HAL2     0.900000E-01   1.00800           0
      2257 MEMB     13       DOPC     C36      CTL2    -0.180000       12.0110           0
      2258 MEMB     13       DOPC     H6X      HAL2     0.900000E-01   1.00800           0
      2259 MEMB     13       DOPC     H6Y      HAL2     0.900000E-01   1.00800           0
      2260 MEMB     13       DOPC     C37      CTL2    -0.180000       12.0110           0
      2261 MEMB     13       DOPC     H7X      HAL2     0.900000E-01   1.00800           0
      2262 MEMB     13       DOPC     H7Y      HAL2     0.900000E-01   1.00800           0
      2263 MEMB     13       DOPC     C38      CTL2    -0.180000       12.0110           0
      2264 MEMB     13       DOPC     H8X      HAL2     0.900000E-01   1.00800           0
      2265 MEMB     13       DOPC     H8Y      HAL2     0.900000E-01   1.00800           0
      2266 MEMB     13       DOPC     C39      CEL1    -0.150000       12.0110           0
      2267 MEMB     13       DOPC     H9X      HEL1     0.150000       1.00800           0
      2268 MEMB     13       DOPC     C310     CEL1    -0.150000       12.0110           0
      2269 MEMB     13       DOPC     H10X     HEL1     0.150000       1.00800           0
      2270 MEMB     13       DOPC     C311     CTL2    -0.180000       12.0110           0
      2271 MEMB     13       DOPC     H11X     HAL2     0.900000E-01   1.00800           0
      2272 MEMB     13       DOPC     H11Y     HAL2     0.900000E-01   1.00800           0
      2273 MEMB     13       DOPC     C312     CTL2    -0.180000       12.0110           0
      2274 MEMB     13       DOPC     H12X     HAL2     0.900000E-01   1.00800           0
      2275 MEMB     13       DOPC     H12Y     HAL2     0.900000E-01   1.00800           0
      2276 MEMB     13       DOPC     C313     CTL2    -0.180000       12.0110           0
      2277 MEMB     13       DOPC     H13X     HAL2     0.900000E-01   1.00800           0
      2278 MEMB     13       DOPC     H13Y     HAL2     0.900000E-01   1.00800           0
      2279 MEMB     13       DOPC     C314     CTL2    -0.180000       12.0110           0
      2280 MEMB     13       DOPC     H14X     HAL2     0.900000E-01   1.00800           0
      2281 MEMB     13       DOPC     H14Y     HAL2     0.900000E-01   1.00800           0
      2282 MEMB     13       DOPC     C315     CTL2    -0.180000       12.0110           0
      2283 MEMB     13       DOPC     H15X     HAL2     0.900000E-01   1.00800           0
      2284 MEMB     13       DOPC     H15Y     HAL2     0.900000E-01   1.00800           0
      2285 MEMB     13       DOPC     C316     CTL2    -0.180000       12.0110           0
      2286 MEMB     13       DOPC     H16X     HAL2     0.900000E-01   1.00800           0
      2287 MEMB     13       DOPC     H16Y     HAL2     0.900000E-01   1.00800           0
      2288 MEMB     13       DOPC     C317     CTL2    -0.180000       12.0110           0
      2289 MEMB     13       DOPC     H17X     HAL2     0.900000E-01   1.00800           0
      2290 MEMB     13       DOPC     H17Y     HAL2     0.900000E-01   1.00800           0
      2291 MEMB     13       DOPC     C318     CTL3    -0.270000       12.0110           0
      2292 MEMB     13       DOPC     H18X     HAL3     0.900000E-01   1.00800           0
      2293 MEMB     13       DOPC     H18Y     HAL3     0.900000E-01   1.00800           0
      2294 MEMB     13       DOPC     H18Z     HAL3     0.900000E-01   1.00800           0
      2295 MEMB     14       DOPC     N        NTL     -0.600000       14.0070           0
      2296 MEMB     14       DOPC     C12      CTL2    -0.100000       12.0110           0
      2297 MEMB     14       DOPC     H12A     HL       0.250000       1.00800           0
      2298 MEMB     14       DOPC     H12B     HL       0.250000       1.00800           0
      2299 MEMB     14       DOPC     C13      CTL5    -0.350000       12.0110           0
      2300 MEMB     14       DOPC     H13A     HL       0.250000       1.00800           0
      2301 MEMB     14       DOPC     H13B     HL       0.250000       1.00800           0
      2302 MEMB     14       DOPC     H13C     HL       0.250000       1.00800           0
      2303 MEMB     14       DOPC     C14      CTL5    -0.350000       12.0110           0
      2304 MEMB     14       DOPC     H14A     HL       0.250000       1.00800           0
      2305 MEMB     14       DOPC     H14B     HL       0.250000       1.00800           0
      2306 MEMB     14       DOPC     H14C     HL       0.250000       1.00800           0
      2307 MEMB     14       DOPC     C15      CTL5    -0.350000       12.0110           0
      2308 MEMB     14       DOPC     H15A     HL       0.250000       1.00800           0
      2309 MEMB     14       DOPC     H15B     HL       0.250000       1.00800           0
      2310 MEMB     14       DOPC     H15C     HL       0.250000       1.00800           0
      2311 MEMB     14       DOPC     C11      CTL2    -0.800000E-01   12.0110           0
      2312 MEMB     14       DOPC     H11A     HAL2     0.900000E-01   1.00800           0
      2313 MEMB     14       DOPC     H11B     HAL2     0.900000E-01   1.00800           0
      2314 MEMB     14       DOPC     P        PL        1.50000       30.9740           0
      2315 MEMB     14       DOPC     O13      O2L     -0.780000       15.9994           0
      2316 MEMB     14       DOPC     O14      O2L     -0.780000       15.9994           0
      2317 MEMB     14       DOPC     O12      OSLP    -0.570000       15.9994           0
      2318 MEMB     14       DOPC     O11      OSLP    -0.570000       15.9994           0
      2319 MEMB     14       DOPC     C1       CTL2    -0.800000E-01   12.0110           0
      2320 MEMB     14       DOPC     HA       HAL2     0.900000E-01   1.00800           0
      2321 MEMB     14       DOPC     HB       HAL2     0.900000E-01   1.00800           0
      2322 MEMB     14       DOPC     C2       CTL1     0.170000       12.0110           0
      2323 MEMB     14       DOPC     HS       HAL1     0.900000E-01   1.00800           0
      2324 MEMB     14       DOPC     O21      OSL     -0.490000       15.9994           0
      2325 MEMB     14       DOPC     C21      CL       0.900000       12.0110           0
      2326 MEMB     14       DOPC     O22      OBL     -0.630000       15.9994           0
      2327 MEMB     14       DOPC     C22      CTL2    -0.220000       12.0110           0
      2328 MEMB     14       DOPC     H2R      HAL2     0.900000E-01   1.00800           0
      2329 MEMB     14       DOPC     H2S      HAL2     0.900000E-01   1.00800           0
      2330 MEMB     14       DOPC     C3       CTL2     0.800000E-01   12.0110           0
      2331 MEMB     14       DOPC     HX       HAL2     0.900000E-01   1.00800           0
      2332 MEMB     14       DOPC     HY       HAL2     0.900000E-01   1.00800           0
      2333 MEMB     14       DOPC     O31      OSL     -0.490000       15.9994           0
      2334 MEMB     14       DOPC     C31      CL       0.900000       12.0110           0
      2335 MEMB     14       DOPC     O32      OBL     -0.630000       15.9994           0
      2336 MEMB     14       DOPC     C32      CTL2    -0.220000       12.0110           0
      2337 MEMB     14       DOPC     H2X      HAL2     0.900000E-01   1.00800           0
      2338 MEMB     14       DOPC     H2Y      HAL2     0.900000E-01   1.00800           0
      2339 MEMB     14       DOPC     C23      CTL2    -0.180000       12.0110           0
      2340 MEMB     14       DOPC     H3R      HAL2     0.900000E-01   1.00800           0
      2341 MEMB     14       DOPC     H3S      HAL2     0.900000E-01   1.00800           0
      2342 MEMB     14       DOPC     C24      CTL2    -0.180000       12.0110           0
      2343 MEMB     14       DOPC     H4R      HAL2     0.900000E-01   1.00800           0
      2344 MEMB     14       DOPC     H4S      HAL2     0.900000E-01   1.00800           0
      2345 MEMB     14       DOPC     C25      CTL2    -0.180000       12.0110           0
      2346 MEMB     14       DOPC     H5R      HAL2     0.900000E-01   1.00800           0
      2347 MEMB     14       DOPC     H5S      HAL2     0.900000E-01   1.00800           0
      2348 MEMB     14       DOPC     C26      CTL2    -0.180000       12.0110           0
      2349 MEMB     14       DOPC     H6R      HAL2     0.900000E-01   1.00800           0
      2350 MEMB     14       DOPC     H6S      HAL2     0.900000E-01   1.00800           0
      2351 MEMB     14       DOPC     C27      CTL2    -0.180000       12.0110           0
      2352 MEMB     14       DOPC     H7R      HAL2     0.900000E-01   1.00800           0
      2353 MEMB     14       DOPC     H7S      HAL2     0.900000E-01   1.00800           0
      2354 MEMB     14       DOPC     C28      CTL2    -0.180000       12.0110           0
      2355 MEMB     14       DOPC     H8R      HAL2     0.900000E-01   1.00800           0
      2356 MEMB     14       DOPC     H8S      HAL2     0.900000E-01   1.00800           0
      2357 MEMB     14       DOPC     C29      CEL1    -0.150000       12.0110           0
      2358 MEMB     14       DOPC     H9R      HEL1     0.150000       1.00800           0
      2359 MEMB     14       DOPC     C210     CEL1    -0.150000       12.0110           0
      2360 MEMB     14       DOPC     H10R     HEL1     0.150000       1.00800           0
      2361 MEMB     14       DOPC     C211     CTL2    -0.180000       12.0110           0
      2362 MEMB     14       DOPC     H11R     HAL2     0.900000E-01   1.00800           0
      2363 MEMB     14       DOPC     H11S     HAL2     0.900000E-01   1.00800           0
      2364 MEMB     14       DOPC     C212     CTL2    -0.180000       12.0110           0
      2365 MEMB     14       DOPC     H12R     HAL2     0.900000E-01   1.00800           0
      2366 MEMB     14       DOPC     H12S     HAL2     0.900000E-01   1.00800           0
      2367 MEMB     14       DOPC     C213     CTL2    -0.180000       12.0110           0
      2368 MEMB     14       DOPC     H13R     HAL2     0.900000E-01   1.00800           0
      2369 MEMB     14       DOPC     H13S     HAL2     0.900000E-01   1.00800           0
      2370 MEMB     14       DOPC     C214     CTL2    -0.180000       12.0110           0
      2371 MEMB     14       DOPC     H14R     HAL2     0.900000E-01   1.00800           0
      2372 MEMB     14       DOPC     H14S     HAL2     0.900000E-01   1.00800           0
      2373 MEMB     14       DOPC     C215     CTL2    -0.180000       12.0110           0
      2374 MEMB     14       DOPC     H15R     HAL2     0.900000E-01   1.00800           0
      2375 MEMB     14       DOPC     H15S     HAL2     0.900000E-01   1.00800           0
      2376 MEMB     14       DOPC     C216     CTL2    -0.180000       12.0110           0
      2377 MEMB     14       DOPC     H16R     HAL2     0.900000E-01   1.00800           0
      2378 MEMB     14       DOPC     H16S     HAL2     0.900000E-01   1.00800           0
      2379 MEMB     14       DOPC     C217     CTL2    -0.180000       12.0110           0
      2380 MEMB     14       DOPC     H17R     HAL2     0.900000E-01   1.00800           0
      2381 MEMB     14       DOPC     H17S     HAL2     0.900000E-01   1.00800           0
      2382 MEMB     14       DOPC     C218     CTL3    -0.270000       12.0110           0
      2383 MEMB     14       DOPC     H18R     HAL3     0.900000E-01   1.00800           0
      2384 MEMB     14       DOPC     H18S     HAL3     0.900000E-01   1.00800           0
      2385 MEMB     14       DOPC     H18T     HAL3     0.900000E-01   1.00800           0
      2386 MEMB     14       DOPC     C33      CTL2    -0.180000       12.0110           0
      2387 MEMB     14       DOPC     H3X      HAL2     0.900000E-01   1.00800           0
      2388 MEMB     14       DOPC     H3Y      HAL2     0.900000E-01   1.00800           0
      2389 MEMB     14       DOPC     C34      CTL2    -0.180000       12.0110           0
      2390 MEMB     14       DOPC     H4X      HAL2     0.900000E-01   1.00800           0
      2391 MEMB     14       DOPC     H4Y      HAL2     0.900000E-01   1.00800           0
      2392 MEMB     14       DOPC     C35      CTL2    -0.180000       12.0110           0
      2393 MEMB     14       DOPC     H5X      HAL2     0.900000E-01   1.00800           0
      2394 MEMB     14       DOPC     H5Y      HAL2     0.900000E-01   1.00800           0
      2395 MEMB     14       DOPC     C36      CTL2    -0.180000       12.0110           0
      2396 MEMB     14       DOPC     H6X      HAL2     0.900000E-01   1.00800           0
      2397 MEMB     14       DOPC     H6Y      HAL2     0.900000E-01   1.00800           0
      2398 MEMB     14       DOPC     C37      CTL2    -0.180000       12.0110           0
      2399 MEMB     14       DOPC     H7X      HAL2     0.900000E-01   1.00800           0
      2400 MEMB     14       DOPC     H7Y      HAL2     0.900000E-01   1.00800           0
      2401 MEMB     14       DOPC     C38      CTL2    -0.180000       12.0110           0
      2402 MEMB     14       DOPC     H8X      HAL2     0.900000E-01   1.00800           0
      2403 MEMB     14       DOPC     H8Y      HAL2     0.900000E-01   1.00800           0
      2404 MEMB     14       DOPC     C39      CEL1    -0.150000       12.0110           0
      2405 MEMB     14       DOPC     H9X      HEL1     0.150000       1.00800           0
      2406 MEMB     14       DOPC     C310     CEL1    -0.150000       12.0110           0
      2407 MEMB     14       DOPC     H10X     HEL1     0.150000       1.00800           0
      2408 MEMB     14       DOPC     C311     CTL2    -0.180000       12.0110           0
      2409 MEMB     14       DOPC     H11X     HAL2     0.900000E-01   1.00800           0
      2410 MEMB     14       DOPC     H11Y     HAL2     0.900000E-01   1.00800           0
      2411 MEMB     14       DOPC     C312     CTL2    -0.180000       12.0110           0
      2412 MEMB     14       DOPC     H12X     HAL2     0.900000E-01   1.00800           0
      2413 MEMB     14       DOPC     H12Y     HAL2     0.900000E-01   1.00800           0
      2414 MEMB     14       DOPC     C313     CTL2    -0.180000       12.0110           0
      2415 MEMB     14       DOPC     H13X     HAL2     0.900000E-01   1.00800           0
      2416 MEMB     14       DOPC     H13Y     HAL2     0.900000E-01   1.00800           0
      2417 MEMB     14       DOPC     C314     CTL2    -0.180000       12.0110           0
      2418 MEMB     14       DOPC     H14X     HAL2     0.900000E-01   1.00800           0
      2419 MEMB     14       DOPC     H14Y     HAL2     0.900000E-01   1.00800           0
      2420 MEMB     14       DOPC     C315     CTL2    -0.180000       12.0110           0
      2421 MEMB     14       DOPC     H15X     HAL2     0.900000E-01   1.00800           0
      2422 MEMB     14       DOPC     H15Y     HAL2     0.900000E-01   1.00800           0
      2423 MEMB     14       DOPC     C316     CTL2    -0.180000       12.0110           0
      2424 MEMB     14       DOPC     H16X     HAL2     0.900000E-01   1.00800           0
      2425 MEMB     14       DOPC     H16Y     HAL2     0.900000E-01   1.00800           0
      2426 MEMB     14       DOPC     C317     CTL2    -0.180000       12.0110           0
      2427 MEMB     14       DOPC     H17X     HAL2     0.900000E-01   1.00800           0
      2428 MEMB     14       DOPC     H17Y     HAL2     0.900000E-01   1.00800           0
      2429 MEMB     14       DOPC     C318     CTL3    -0.270000       12.0110           0
      2430 MEMB     14       DOPC     H18X     HAL3     0.900000E-01   1.00800           0
      2431 MEMB     14       DOPC     H18Y     HAL3     0.900000E-01   1.00800           0
      2432 MEMB     14       DOPC     H18Z     HAL3     0.900000E-01   1.00800           0
      2433 MEMB     15       DOPC     N        NTL     -0.600000       14.0070           0
      2434 MEMB     15       DOPC     C12      CTL2    -0.100000       12.0110           0
      2435 MEMB     15       DOPC     H12A     HL       0.250000       1.00800           0
      2436 MEMB     15       DOPC     H12B     HL       0.250000       1.00800           0
      2437 MEMB     15       DOPC     C13      CTL5    -0.350000       12.0110           0
      2438 MEMB     15       DOPC     H13A     HL       0.250000       1.00800           0
      2439 MEMB     15       DOPC     H13B     HL       0.250000       1.00800           0
      2440 MEMB     15       DOPC     H13C     HL       0.250000       1.00800           0
      2441 MEMB     15       DOPC     C14      CTL5    -0.350000       12.0110           0
      2442 MEMB     15       DOPC     H14A     HL       0.250000       1.00800           0
      2443 MEMB     15       DOPC     H14B     HL       0.250000       1.00800           0
      2444 MEMB     15       DOPC     H14C     HL       0.250000       1.00800           0
      2445 MEMB     15       DOPC     C15      CTL5    -0.350000       12.0110           0
      2446 MEMB     15       DOPC     H15A     HL       0.250000       1.00800           0
      2447 MEMB     15       DOPC     H15B     HL       0.250000       1.00800           0
      2448 MEMB     15       DOPC     H15C     HL       0.250000       1.00800           0
      2449 MEMB     15       DOPC     C11      CTL2    -0.800000E-01   12.0110           0
      2450 MEMB     15       DOPC     H11A     HAL2     0.900000E-01   1.00800           0
      2451 MEMB     15       DOPC     H11B     HAL2     0.900000E-01   1.00800           0
      2452 MEMB     15       DOPC     P        PL        1.50000       30.9740           0
      2453 MEMB     15       DOPC     O13      O2L     -0.780000       15.9994           0
      2454 MEMB     15       DOPC     O14      O2L     -0.780000       15.9994           0
      2455 MEMB     15       DOPC     O12      OSLP    -0.570000       15.9994           0
      2456 MEMB     15       DOPC     O11      OSLP    -0.570000       15.9994           0
      2457 MEMB     15       DOPC     C1       CTL2    -0.800000E-01   12.0110           0
      2458 MEMB     15       DOPC     HA       HAL2     0.900000E-01   1.00800           0
      2459 MEMB     15       DOPC     HB       HAL2     0.900000E-01   1.00800           0
      2460 MEMB     15       DOPC     C2       CTL1     0.170000       12.0110           0
      2461 MEMB     15       DOPC     HS       HAL1     0.900000E-01   1.00800           0
      2462 MEMB     15       DOPC     O21      OSL     -0.490000       15.9994           0
      2463 MEMB     15       DOPC     C21      CL       0.900000       12.0110           0
      2464 MEMB     15       DOPC     O22      OBL     -0.630000       15.9994           0
      2465 MEMB     15       DOPC     C22      CTL2    -0.220000       12.0110           0
      2466 MEMB     15       DOPC     H2R      HAL2     0.900000E-01   1.00800           0
      2467 MEMB     15       DOPC     H2S      HAL2     0.900000E-01   1.00800           0
      2468 MEMB     15       DOPC     C3       CTL2     0.800000E-01   12.0110           0
      2469 MEMB     15       DOPC     HX       HAL2     0.900000E-01   1.00800           0
      2470 MEMB     15       DOPC     HY       HAL2     0.900000E-01   1.00800           0
      2471 MEMB     15       DOPC     O31      OSL     -0.490000       15.9994           0
      2472 MEMB     15       DOPC     C31      CL       0.900000       12.0110           0
      2473 MEMB     15       DOPC     O32      OBL     -0.630000       15.9994           0
      2474 MEMB     15       DOPC     C32      CTL2    -0.220000       12.0110           0
      2475 MEMB     15       DOPC     H2X      HAL2     0.900000E-01   1.00800           0
      2476 MEMB     15       DOPC     H2Y      HAL2     0.900000E-01   1.00800           0
      2477 MEMB     15       DOPC     C23      CTL2    -0.180000       12.0110           0
      2478 MEMB     15       DOPC     H3R      HAL2     0.900000E-01   1.00800           0
      2479 MEMB     15       DOPC     H3S      HAL2     0.900000E-01   1.00800           0
      2480 MEMB     15       DOPC     C24      CTL2    -0.180000       12.0110           0
      2481 MEMB     15       DOPC     H4R      HAL2     0.900000E-01   1.00800           0
      2482 MEMB     15       DOPC     H4S      HAL2     0.900000E-01   1.00800           0
      2483 MEMB     15       DOPC     C25      CTL2    -0.180000       12.0110           0
      2484 MEMB     15       DOPC     H5R      HAL2     0.900000E-01   1.00800           0
      2485 MEMB     15       DOPC     H5S      HAL2     0.900000E-01   1.00800           0
      2486 MEMB     15       DOPC     C26      CTL2    -0.180000       12.0110           0
      2487 MEMB     15       DOPC     H6R      HAL2     0.900000E-01   1.00800           0
      2488 MEMB     15       DOPC     H6S      HAL2     0.900000E-01   1.00800           0
      2489 MEMB     15       DOPC     C27      CTL2    -0.180000       12.0110           0
      2490 MEMB     15       DOPC     H7R      HAL2     0.900000E-01   1.00800           0
      2491 MEMB     15       DOPC     H7S      HAL2     0.900000E-01   1.00800           0
      2492 MEMB     15       DOPC     C28      CTL2    -0.180000       12.0110           0
      2493 MEMB     15       DOPC     H8R      HAL2     0.900000E-01   1.00800           0
      2494 MEMB     15       DOPC     H8S      HAL2     0.900000E-01   1.00800           0
      2495 MEMB     15       DOPC     C29      CEL1    -0.150000       12.0110           0
      2496 MEMB     15       DOPC     H9R      HEL1     0.150000       1.00800           0
      2497 MEMB     15       DOPC     C210     CEL1    -0.150000       12.0110           0
      2498 MEMB     15       DOPC     H10R     HEL1     0.150000       1.00800           0
      2499 MEMB     15       DOPC     C211     CTL2    -0.180000       12.0110           0
      2500 MEMB     15       DOPC     H11R     HAL2     0.900000E-01   1.00800           0
      2501 MEMB     15       DOPC     H11S     HAL2     0.900000E-01   1.00800           0
      2502 MEMB     15       DOPC     C212     CTL2    -0.180000       12.0110           0
      2503 MEMB     15       DOPC     H12R     HAL2     0.900000E-01   1.00800           0
      2504 MEMB     15       DOPC     H12S     HAL2     0.900000E-01   1.00800           0
      2505 MEMB     15       DOPC     C213     CTL2    -0.180000       12.0110           0
      2506 MEMB     15       DOPC     H13R     HAL2     0.900000E-01   1.00800           0
      2507 MEMB     15       DOPC     H13S     HAL2     0.900000E-01   1.00800           0
      2508 MEMB     15       DOPC     C214     CTL2    -0.180000       12.0110           0
      2509 MEMB     15       DOPC     H14R     HAL2     0.900000E-01   1.00800           0
      2510 MEMB     15       DOPC     H14S     HAL2     0.900000E-01   1.00800           0
      2511 MEMB     15       DOPC     C215     CTL2    -0.180000       12.0110           0
      2512 MEMB     15       DOPC     H15R     HAL2     0.900000E-01   1.00800           0
      2513 MEMB     15       DOPC     H15S     HAL2     0.900000E-01   1.00800           0
      2514 MEMB     15       DOPC     C216     CTL2    -0.180000       12.0110           0
      2515 MEMB     15       DOPC     H16R     HAL2     0.900000E-01   1.00800           0
      2516 MEMB     15       DOPC     H16S     HAL2     0.900000E-01   1.00800           0
      2517 MEMB     15       DOPC     C217     CTL2    -0.180000       12.0110           0
      2518 MEMB     15       DOPC     H17R     HAL2     0.900000E-01   1.00800           0
      2519 MEMB     15       DOPC     H17S     HAL2     0.900000E-01   1.00800           0
      2520 MEMB     15       DOPC     C218     CTL3    -0.270000       12.0110           0
      2521 MEMB     15       DOPC     H18R     HAL3     0.900000E-01   1.00800           0
      2522 MEMB     15       DOPC     H18S     HAL3     0.900000E-01   1.00800           0
      2523 MEMB     15       DOPC     H18T     HAL3     0.900000E-01   1.00800           0
      2524 MEMB     15       DOPC     C33      CTL2    -0.180000       12.0110           0
      2525 MEMB     15       DOPC     H3X      HAL2     0.900000E-01   1.00800           0
      2526 MEMB     15       DOPC     H3Y      HAL2     0.900000E-01   1.00800           0
      2527 MEMB     15       DOPC     C34      CTL2    -0.180000       12.0110           0
      2528 MEMB     15       DOPC     H4X      HAL2     0.900000E-01   1.00800           0
      2529 MEMB     15       DOPC     H4Y      HAL2     0.900000E-01   1.00800           0
      2530 MEMB     15       DOPC     C35      CTL2    -0.180000       12.0110           0
      2531 MEMB     15       DOPC     H5X      HAL2     0.900000E-01   1.00800           0
      2532 MEMB     15       DOPC     H5Y      HAL2     0.900000E-01   1.00800           0
      2533 MEMB     15       DOPC     C36      CTL2    -0.180000       12.0110           0
      2534 MEMB     15       DOPC     H6X      HAL2     0.900000E-01   1.00800           0
      2535 MEMB     15       DOPC     H6Y      HAL2     0.900000E-01   1.00800           0
      2536 MEMB     15       DOPC     C37      CTL2    -0.180000       12.0110           0
      2537 MEMB     15       DOPC     H7X      HAL2     0.900000E-01   1.00800           0
      2538 MEMB     15       DOPC     H7Y      HAL2     0.900000E-01   1.00800           0
      2539 MEMB     15       DOPC     C38      CTL2    -0.180000       12.0110           0
      2540 MEMB     15       DOPC     H8X      HAL2     0.900000E-01   1.00800           0
      2541 MEMB     15       DOPC     H8Y      HAL2     0.900000E-01   1.00800           0
      2542 MEMB     15       DOPC     C39      CEL1    -0.150000       12.0110           0
      2543 MEMB     15       DOPC     H9X      HEL1     0.150000       1.00800           0
      2544 MEMB     15       DOPC     C310     CEL1    -0.150000       12.0110           0
      2545 MEMB     15       DOPC     H10X     HEL1     0.150000       1.00800           0
      2546 MEMB     15       DOPC     C311     CTL2    -0.180000       12.0110           0
      2547 MEMB     15       DOPC     H11X     HAL2     0.900000E-01   1.00800           0
      2548 MEMB     15       DOPC     H11Y     HAL2     0.900000E-01   1.00800           0
      2549 MEMB     15       DOPC     C312     CTL2    -0.180000       12.0110           0
      2550 MEMB     15       DOPC     H12X     HAL2     0.900000E-01   1.00800           0
      2551 MEMB     15       DOPC     H12Y     HAL2     0.900000E-01   1.00800           0
      2552 MEMB     15       DOPC     C313     CTL2    -0.180000       12.0110           0
      2553 MEMB     15       DOPC     H13X     HAL2     0.900000E-01   1.00800           0
      2554 MEMB     15       DOPC     H13Y     HAL2     0.900000E-01   1.00800           0
      2555 MEMB     15       DOPC     C314     CTL2    -0.180000       12.0110           0
      2556 MEMB     15       DOPC     H14X     HAL2     0.900000E-01   1.00800           0
      2557 MEMB     15       DOPC     H14Y     HAL2     0.900000E-01   1.00800           0
      2558 MEMB     15       DOPC     C315     CTL2    -0.180000       12.0110           0
      2559 MEMB     15       DOPC     H15X     HAL2     0.900000E-01   1.00800           0
      2560 MEMB     15       DOPC     H15Y     HAL2     0.900000E-01   1.00800           0
      2561 MEMB     15       DOPC     C316     CTL2    -0.180000       12.0110           0
      2562 MEMB     15       DOPC     H16X     HAL2     0.900000E-01   1.00800           0
      2563 MEMB     15       DOPC     H16Y     HAL2     0.900000E-01   1.00800           0
      2564 MEMB     15       DOPC     C317     CTL2    -0.180000       12.0110           0
      2565 MEMB     15       DOPC     H17X     HAL2     0.900000E-01   1.00800           0
      2566 MEMB     15       DOPC     H17Y     HAL2     0.900000E-01   1.00800           0
      2567 MEMB     15       DOPC     C318     CTL3    -0.270000       12.0110           0
      2568 MEMB     15       DOPC     H18X     HAL3     0.900000E-01   1.00800           0
      2569 MEMB     15       DOPC     H18Y     HAL3     0.900000E-01   1.00800           0
      2570 MEMB     15       DOPC     H18Z     HAL3     0.900000E-01   1.00800           0
      2571 MEMB     16       DOPC     N        NTL     -0.600000       14.0070           0
      2572 MEMB     16       DOPC     C12      CTL2    -0.100000       12.0110           0
      2573 MEMB     16       DOPC     H12A     HL       0.250000       1.00800           0
      2574 MEMB     16       DOPC     H12B     HL       0.250000       1.00800           0
      2575 MEMB     16       DOPC     C13      CTL5    -0.350000       12.0110           0
      2576 MEMB     16       DOPC     H13A     HL       0.250000       1.00800           0
      2577 MEMB     16       DOPC     H13B     HL       0.250000       1.00800           0
      2578 MEMB     16       DOPC     H13C     HL       0.250000       1.00800           0
      2579 MEMB     16       DOPC     C14      CTL5    -0.350000       12.0110           0
      2580 MEMB     16       DOPC     H14A     HL       0.250000       1.00800           0
      2581 MEMB     16       DOPC     H14B     HL       0.250000       1.00800           0
      2582 MEMB     16       DOPC     H14C     HL       0.250000       1.00800           0
      2583 MEMB     16       DOPC     C15      CTL5    -0.350000       12.0110           0
      2584 MEMB     16       DOPC     H15A     HL       0.250000       1.00800           0
      2585 MEMB     16       DOPC     H15B     HL       0.250000       1.00800           0
      2586 MEMB     16       DOPC     H15C     HL       0.250000       1.00800           0
      2587 MEMB     16       DOPC     C11      CTL2    -0.800000E-01   12.0110           0
      2588 MEMB     16       DOPC     H11A     HAL2     0.900000E-01   1.00800           0
      2589 MEMB     16       DOPC     H11B     HAL2     0.900000E-01   1.00800           0
      2590 MEMB     16       DOPC     P        PL        1.50000       30.9740           0
      2591 MEMB     16       DOPC     O13      O2L     -0.780000       15.9994           0
      2592 MEMB     16       DOPC     O14      O2L     -0.780000       15.9994           0
      2593 MEMB     16       DOPC     O12      OSLP    -0.570000       15.9994           0
      2594 MEMB     16       DOPC     O11      OSLP    -0.570000       15.9994           0
      2595 MEMB     16       DOPC     C1       CTL2    -0.800000E-01   12.0110           0
      2596 MEMB     16       DOPC     HA       HAL2     0.900000E-01   1.00800           0
      2597 MEMB     16       DOPC     HB       HAL2     0.900000E-01   1.00800           0
      2598 MEMB     16       DOPC     C2       CTL1     0.170000       12.0110           0
      2599 MEMB     16       DOPC     HS       HAL1     0.900000E-01   1.00800           0
      2600 MEMB     16       DOPC     O21      OSL     -0.490000       15.9994           0
      2601 MEMB     16       DOPC     C21      CL       0.900000       12.0110           0
      2602 MEMB     16       DOPC     O22      OBL     -0.630000       15.9994           0
      2603 MEMB     16       DOPC     C22      CTL2    -0.220000       12.0110           0
      2604 MEMB     16       DOPC     H2R      HAL2     0.900000E-01   1.00800           0
      2605 MEMB     16       DOPC     H2S      HAL2     0.900000E-01   1.00800           0
      2606 MEMB     16       DOPC     C3       CTL2     0.800000E-01   12.0110           0
      2607 MEMB     16       DOPC     HX       HAL2     0.900000E-01   1.00800           0
      2608 MEMB     16       DOPC     HY       HAL2     0.900000E-01   1.00800           0
      2609 MEMB     16       DOPC     O31      OSL     -0.490000       15.9994           0
      2610 MEMB     16       DOPC     C31      CL       0.900000       12.0110           0
      2611 MEMB     16       DOPC     O32      OBL     -0.630000       15.9994           0
      2612 MEMB     16       DOPC     C32      CTL2    -0.220000       12.0110           0
      2613 MEMB     16       DOPC     H2X      HAL2     0.900000E-01   1.00800           0
      2614 MEMB     16       DOPC     H2Y      HAL2     0.900000E-01   1.00800           0
      2615 MEMB     16       DOPC     C23      CTL2    -0.180000       12.0110           0
      2616 MEMB     16       DOPC     H3R      HAL2     0.900000E-01   1.00800           0
      2617 MEMB     16       DOPC     H3S      HAL2     0.900000E-01   1.00800           0
      2618 MEMB     16       DOPC     C24      CTL2    -0.180000       12.0110           0
      2619 MEMB     16       DOPC     H4R      HAL2     0.900000E-01   1.00800           0
      2620 MEMB     16       DOPC     H4S      HAL2     0.900000E-01   1.00800           0
      2621 MEMB     16       DOPC     C25      CTL2    -0.180000       12.0110           0
      2622 MEMB     16       DOPC     H5R      HAL2     0.900000E-01   1.00800           0
      2623 MEMB     16       DOPC     H5S      HAL2     0.900000E-01   1.00800           0
      2624 MEMB     16       DOPC     C26      CTL2    -0.180000       12.0110           0
      2625 MEMB     16       DOPC     H6R      HAL2     0.900000E-01   1.00800           0
      2626 MEMB     16       DOPC     H6S      HAL2     0.900000E-01   1.00800           0
      2627 MEMB     16       DOPC     C27      CTL2    -0.180000       12.0110           0
      2628 MEMB     16       DOPC     H7R      HAL2     0.900000E-01   1.00800           0
      2629 MEMB     16       DOPC     H7S      HAL2     0.900000E-01   1.00800           0
      2630 MEMB     16       DOPC     C28      CTL2    -0.180000       12.0110           0
      2631 MEMB     16       DOPC     H8R      HAL2     0.900000E-01   1.00800           0
      2632 MEMB     16       DOPC     H8S      HAL2     0.900000E-01   1.00800           0
      2633 MEMB     16       DOPC     C29      CEL1    -0.150000       12.0110           0
      2634 MEMB     16       DOPC     H9R      HEL1     0.150000       1.00800           0
      2635 MEMB     16       DOPC     C210     CEL1    -0.150000       12.0110           0
      2636 MEMB     16       DOPC     H10R     HEL1     0.150000       1.00800           0
      2637 MEMB     16       DOPC     C211     CTL2    -0.180000       12.0110           0
      2638 MEMB     16       DOPC     H11R     HAL2     0.900000E-01   1.00800           0
      2639 MEMB     16       DOPC     H11S     HAL2     0.900000E-01   1.00800           0
      2640 MEMB     16       DOPC     C212     CTL2    -0.180000       12.0110           0
      2641 MEMB     16       DOPC     H12R     HAL2     0.900000E-01   1.00800           0
      2642 MEMB     16       DOPC     H12S     HAL2     0.900000E-01   1.00800           0
      2643 MEMB     16       DOPC     C213     CTL2    -0.180000       12.0110           0
      2644 MEMB     16       DOPC     H13R     HAL2     0.900000E-01   1.00800           0
      2645 MEMB     16       DOPC     H13S     HAL2     0.900000E-01   1.00800           0
      2646 MEMB     16       DOPC     C214     CTL2    -0.180000       12.0110           0
      2647 MEMB     16       DOPC     H14R     HAL2     0.900000E-01   1.00800           0
      2648 MEMB     16       DOPC     H14S     HAL2     0.900000E-01   1.00800           0
      2649 MEMB     16       DOPC     C215     CTL2    -0.180000       12.0110           0
      2650 MEMB     16       DOPC     H15R     HAL2     0.900000E-01   1.00800           0
      2651 MEMB     16       DOPC     H15S     HAL2     0.900000E-01   1.00800           0
      2652 MEMB     16       DOPC     C216     CTL2    -0.180000       12.0110           0
      2653 MEMB     16       DOPC     H16R     HAL2     0.900000E-01   1.00800           0
      2654 MEMB     16       DOPC     H16S     HAL2     0.900000E-01   1.00800           0
      2655 MEMB     16       DOPC     C217     CTL2    -0.180000       12.0110           0
      2656 MEMB     16       DOPC     H17R     HAL2     0.900000E-01   1.00800           0
      2657 MEMB     16       DOPC     H17S     HAL2     0.900000E-01   1.00800           0
      2658 MEMB     16       DOPC     C218     CTL3    -0.270000       12.0110           0
      2659 MEMB     16       DOPC     H18R     HAL3     0.900000E-01   1.00800           0
      2660 MEMB     16       DOPC     H18S     HAL3     0.900000E-01   1.00800           0
      2661 MEMB     16       DOPC     H18T     HAL3     0.900000E-01   1.00800           0
      2662 MEMB     16       DOPC     C33      CTL2    -0.180000       12.0110           0
      2663 MEMB     16       DOPC     H3X      HAL2     0.900000E-01   1.00800           0
      2664 MEMB     16       DOPC     H3Y      HAL2     0.900000E-01   1.00800           0
      2665 MEMB     16       DOPC     C34      CTL2    -0.180000       12.0110           0
      2666 MEMB     16       DOPC     H4X      HAL2     0.900000E-01   1.00800           0
      2667 MEMB     16       DOPC     H4Y      HAL2     0.900000E-01   1.00800           0
      2668 MEMB     16       DOPC     C35      CTL2    -0.180000       12.0110           0
      2669 MEMB     16       DOPC     H5X      HAL2     0.900000E-01   1.00800           0
      2670 MEMB     16       DOPC     H5Y      HAL2     0.900000E-01   1.00800           0
      2671 MEMB     16       DOPC     C36      CTL2    -0.180000       12.0110           0
      2672 MEMB     16       DOPC     H6X      HAL2     0.900000E-01   1.00800           0
      2673 MEMB     16       DOPC     H6Y      HAL2     0.900000E-01   1.00800           0
      2674 MEMB     16       DOPC     C37      CTL2    -0.180000       12.0110           0
      2675 MEMB     16       DOPC     H7X      HAL2     0.900000E-01   1.00800           0
      2676 MEMB     16       DOPC     H7Y      HAL2     0.900000E-01   1.00800           0
      2677 MEMB     16       DOPC     C38      CTL2    -0.180000       12.0110           0
      2678 MEMB     16       DOPC     H8X      HAL2     0.900000E-01   1.00800           0
      2679 MEMB     16       DOPC     H8Y      HAL2     0.900000E-01   1.00800           0
      2680 MEMB     16       DOPC     C39      CEL1    -0.150000       12.0110           0
      2681 MEMB     16       DOPC     H9X      HEL1     0.150000       1.00800           0
      2682 MEMB     16       DOPC     C310     CEL1    -0.150000       12.0110           0
      2683 MEMB     16       DOPC     H10X     HEL1     0.150000       1.00800           0
      2684 MEMB     16       DOPC     C311     CTL2    -0.180000       12.0110           0
      2685 MEMB     16       DOPC     H11X     HAL2     0.900000E-01   1.00800           0
      2686 MEMB     16       DOPC     H11Y     HAL2     0.900000E-01   1.00800           0
      2687 MEMB     16       DOPC     C312     CTL2    -0.180000       12.0110           0
      2688 MEMB     16       DOPC     H12X     HAL2     0.900000E-01   1.00800           0
      2689 MEMB     16       DOPC     H12Y     HAL2     0.900000E-01   1.00800           0
      2690 MEMB     16       DOPC     C313     CTL2    -0.180000       12.0110           0
      2691 MEMB     16       DOPC     H13X     HAL2     0.900000E-01   1.00800           0
      2692 MEMB     16       DOPC     H13Y     HAL2     0.900000E-01   1.00800           0
      2693 MEMB     16       DOPC     C314     CTL2    -0.180000       12.0110           0
      2694 MEMB     16       DOPC     H14X     HAL2     0.900000E-01   1.00800           0
      2695 MEMB     16       DOPC     H14Y     HAL2     0.900000E-01   1.00800           0
      2696 MEMB     16       DOPC     C315     CTL2    -0.180000       12.0110           0
      2697 MEMB     16       DOPC     H15X     HAL2     0.900000E-01   1.00800           0
      2698 MEMB     16       DOPC     H15Y     HAL2     0.900000E-01   1.00800           0
      2699 MEMB     16       DOPC     C316     CTL2    -0.180000       12.0110           0
      2700 MEMB     16       DOPC     H16X     HAL2     0.900000E-01   1.00800           0
      2701 MEMB     16       DOPC     H16Y     HAL2     0.900000E-01   1.00800           0
      2702 MEMB     16       DOPC     C317     CTL2    -0.180000       12.0110           0
      2703 MEMB     16       DOPC     H17X     HAL2     0.900000E-01   1.00800           0
      2704 MEMB     16       DOPC     H17Y     HAL2     0.900000E-01   1.00800           0
      2705 MEMB     16       DOPC     C318     CTL3    -0.270000       12.0110           0
      2706 MEMB     16       DOPC     H18X     HAL3     0.900000E-01   1.00800           0
      2707 MEMB     16       DOPC     H18Y     HAL3     0.900000E-01   1.00800           0
      2708 MEMB     16       DOPC     H18Z     HAL3     0.900000E-01   1.00800           0
      2709 MEMB     17       DOPC     N        NTL     -0.600000       14.0070           0
      2710 MEMB     17       DOPC     C12      CTL2    -0.100000       12.0110           0
      2711 MEMB     17       DOPC     H12A     HL       0.250000       1.00800           0
      2712 MEMB     17       DOPC     H12B     HL       0.250000       1.00800           0
      2713 MEMB     17       DOPC     C13      CTL5    -0.350000       12.0110           0
      2714 MEMB     17       DOPC     H13A     HL       0.250000       1.00800           0
      2715 MEMB     17       DOPC     H13B     HL       0.250000       1.00800           0
      2716 MEMB     17       DOPC     H13C     HL       0.250000       1.00800           0
      2717 MEMB     17       DOPC     C14      CTL5    -0.350000       12.0110           0
      2718 MEMB     17       DOPC     H14A     HL       0.250000       1.00800           0
      2719 MEMB     17       DOPC     H14B     HL       0.250000       1.00800           0
      2720 MEMB     17       DOPC     H14C     HL       0.250000       1.00800           0
      2721 MEMB     17       DOPC     C15      CTL5    -0.350000       12.0110           0
      2722 MEMB     17       DOPC     H15A     HL       0.250000       1.00800           0
      2723 MEMB     17       DOPC     H15B     HL       0.250000       1.00800           0
      2724 MEMB     17       DOPC     H15C     HL       0.250000       1.00800           0
      2725 MEMB     17       DOPC     C11      CTL2    -0.800000E-01   12.0110           0
      2726 MEMB     17       DOPC     H11A     HAL2     0.900000E-01   1.00800           0
      2727 MEMB     17       DOPC     H11B     HAL2     0.900000E-01   1.00800           0
      2728 MEMB     17       DOPC     P        PL        1.50000       30.9740           0
      2729 MEMB     17       DOPC     O13      O2L     -0.780000       15.9994           0
      2730 MEMB     17       DOPC     O14      O2L     -0.780000       15.9994           0
      2731 MEMB     17       DOPC     O12      OSLP    -0.570000       15.9994           0
      2732 MEMB     17       DOPC     O11      OSLP    -0.570000       15.9994           0
      2733 MEMB     17       DOPC     C1       CTL2    -0.800000E-01   12.0110           0
      2734 MEMB     17       DOPC     HA       HAL2     0.900000E-01   1.00800           0
      2735 MEMB     17       DOPC     HB       HAL2     0.900000E-01   1.00800           0
      2736 MEMB     17       DOPC     C2       CTL1     0.170000       12.0110           0
      2737 MEMB     17       DOPC     HS       HAL1     0.900000E-01   1.00800           0
      2738 MEMB     17       DOPC     O21      OSL     -0.490000       15.9994           0
      2739 MEMB     17       DOPC     C21      CL       0.900000       12.0110           0
      2740 MEMB     17       DOPC     O22      OBL     -0.630000       15.9994           0
      2741 MEMB     17       DOPC     C22      CTL2    -0.220000       12.0110           0
      2742 MEMB     17       DOPC     H2R      HAL2     0.900000E-01   1.00800           0
      2743 MEMB     17       DOPC     H2S      HAL2     0.900000E-01   1.00800           0
      2744 MEMB     17       DOPC     C3       CTL2     0.800000E-01   12.0110           0
      2745 MEMB     17       DOPC     HX       HAL2     0.900000E-01   1.00800           0
      2746 MEMB     17       DOPC     HY       HAL2     0.900000E-01   1.00800           0
      2747 MEMB     17       DOPC     O31      OSL     -0.490000       15.9994           0
      2748 MEMB     17       DOPC     C31      CL       0.900000       12.0110           0
      2749 MEMB     17       DOPC     O32      OBL     -0.630000       15.9994           0
      2750 MEMB     17       DOPC     C32      CTL2    -0.220000       12.0110           0
      2751 MEMB     17       DOPC     H2X      HAL2     0.900000E-01   1.00800           0
      2752 MEMB     17       DOPC     H2Y      HAL2     0.900000E-01   1.00800           0
      2753 MEMB     17       DOPC     C23      CTL2    -0.180000       12.0110           0
      2754 MEMB     17       DOPC     H3R      HAL2     0.900000E-01   1.00800           0
      2755 MEMB     17       DOPC     H3S      HAL2     0.900000E-01   1.00800           0
      2756 MEMB     17       DOPC     C24      CTL2    -0.180000       12.0110           0
      2757 MEMB     17       DOPC     H4R      HAL2     0.900000E-01   1.00800           0
      2758 MEMB     17       DOPC     H4S      HAL2     0.900000E-01   1.00800           0
      2759 MEMB     17       DOPC     C25      CTL2    -0.180000       12.0110           0
      2760 MEMB     17       DOPC     H5R      HAL2     0.900000E-01   1.00800           0
      2761 MEMB     17       DOPC     H5S      HAL2     0.900000E-01   1.00800           0
      2762 MEMB     17       DOPC     C26      CTL2    -0.180000       12.0110           0
      2763 MEMB     17       DOPC     H6R      HAL2     0.900000E-01   1.00800           0
      2764 MEMB     17       DOPC     H6S      HAL2     0.900000E-01   1.00800           0
      2765 MEMB     17       DOPC     C27      CTL2    -0.180000       12.0110           0
      2766 MEMB     17       DOPC     H7R      HAL2     0.900000E-01   1.00800           0
      2767 MEMB     17       DOPC     H7S      HAL2     0.900000E-01   1.00800           0
      2768 MEMB     17       DOPC     C28      CTL2    -0.180000       12.0110           0
      2769 MEMB     17       DOPC     H8R      HAL2     0.900000E-01   1.00800           0
      2770 MEMB     17       DOPC     H8S      HAL2     0.900000E-01   1.00800           0
      2771 MEMB     17       DOPC     C29      CEL1    -0.150000       12.0110           0
      2772 MEMB     17       DOPC     H9R      HEL1     0.150000       1.00800           0
      2773 MEMB     17       DOPC     C210     CEL1    -0.150000       12.0110           0
      2774 MEMB     17       DOPC     H10R     HEL1     0.150000       1.00800           0
      2775 MEMB     17       DOPC     C211     CTL2    -0.180000       12.0110           0
      2776 MEMB     17       DOPC     H11R     HAL2     0.900000E-01   1.00800           0
      2777 MEMB     17       DOPC     H11S     HAL2     0.900000E-01   1.00800           0
      2778 MEMB     17       DOPC     C212     CTL2    -0.180000       12.0110           0
      2779 MEMB     17       DOPC     H12R     HAL2     0.900000E-01   1.00800           0
      2780 MEMB     17       DOPC     H12S     HAL2     0.900000E-01   1.00800           0
      2781 MEMB     17       DOPC     C213     CTL2    -0.180000       12.0110           0
      2782 MEMB     17       DOPC     H13R     HAL2     0.900000E-01   1.00800           0
      2783 MEMB     17       DOPC     H13S     HAL2     0.900000E-01   1.00800           0
      2784 MEMB     17       DOPC     C214     CTL2    -0.180000       12.0110           0
      2785 MEMB     17       DOPC     H14R     HAL2     0.900000E-01   1.00800           0
      2786 MEMB     17       DOPC     H14S     HAL2     0.900000E-01   1.00800           0
      2787 MEMB     17       DOPC     C215     CTL2    -0.180000       12.0110           0
      2788 MEMB     17       DOPC     H15R     HAL2     0.900000E-01   1.00800           0
      2789 MEMB     17       DOPC     H15S     HAL2     0.900000E-01   1.00800           0
      2790 MEMB     17       DOPC     C216     CTL2    -0.180000       12.0110           0
      2791 MEMB     17       DOPC     H16R     HAL2     0.900000E-01   1.00800           0
      2792 MEMB     17       DOPC     H16S     HAL2     0.900000E-01   1.00800           0
      2793 MEMB     17       DOPC     C217     CTL2    -0.180000       12.0110           0
      2794 MEMB     17       DOPC     H17R     HAL2     0.900000E-01   1.00800           0
      2795 MEMB     17       DOPC     H17S     HAL2     0.900000E-01   1.00800           0
      2796 MEMB     17       DOPC     C218     CTL3    -0.270000       12.0110           0
      2797 MEMB     17       DOPC     H18R     HAL3     0.900000E-01   1.00800           0
      2798 MEMB     17       DOPC     H18S     HAL3     0.900000E-01   1.00800           0
      2799 MEMB     17       DOPC     H18T     HAL3     0.900000E-01   1.00800           0
      2800 MEMB     17       DOPC     C33      CTL2    -0.180000       12.0110           0
      2801 MEMB     17       DOPC     H3X      HAL2     0.900000E-01   1.00800           0
      2802 MEMB     17       DOPC     H3Y      HAL2     0.900000E-01   1.00800           0
      2803 MEMB     17       DOPC     C34      CTL2    -0.180000       12.0110           0
      2804 MEMB     17       DOPC     H4X      HAL2     0.900000E-01   1.00800           0
      2805 MEMB     17       DOPC     H4Y      HAL2     0.900000E-01   1.00800           0
      2806 MEMB     17       DOPC     C35      CTL2    -0.180000       12.0110           0
      2807 MEMB     17       DOPC     H5X      HAL2     0.900000E-01   1.00800           0
      2808 MEMB     17       DOPC     H5Y      HAL2     0.900000E-01   1.00800           0
      2809 MEMB     17       DOPC     C36      CTL2    -0.180000       12.0110           0
      2810 MEMB     17       DOPC     H6X      HAL2     0.900000E-01   1.00800           0
      2811 MEMB     17       DOPC     H6Y      HAL2     0.900000E-01   1.00800           0
      2812 MEMB     17       DOPC     C37      CTL2    -0.180000       12.0110           0
      2813 MEMB     17       DOPC     H7X      HAL2     0.900000E-01   1.00800           0
      2814 MEMB     17       DOPC     H7Y      HAL2     0.900000E-01   1.00800           0
      2815 MEMB     17       DOPC     C38      CTL2    -0.180000       12.0110           0
      2816 MEMB     17       DOPC     H8X      HAL2     0.900000E-01   1.00800           0
      2817 MEMB     17       DOPC     H8Y      HAL2     0.900000E-01   1.00800           0
      2818 MEMB     17       DOPC     C39      CEL1    -0.150000       12.0110           0
      2819 MEMB     17       DOPC     H9X      HEL1     0.150000       1.00800           0
      2820 MEMB     17       DOPC     C310     CEL1    -0.150000       12.0110           0
      2821 MEMB     17       DOPC     H10X     HEL1     0.150000       1.00800           0
      2822 MEMB     17       DOPC     C311     CTL2    -0.180000       12.0110           0
      2823 MEMB     17       DOPC     H11X     HAL2     0.900000E-01   1.00800           0
      2824 MEMB     17       DOPC     H11Y     HAL2     0.900000E-01   1.00800           0
      2825 MEMB     17       DOPC     C312     CTL2    -0.180000       12.0110           0
      2826 MEMB     17       DOPC     H12X     HAL2     0.900000E-01   1.00800           0
      2827 MEMB     17       DOPC     H12Y     HAL2     0.900000E-01   1.00800           0
      2828 MEMB     17       DOPC     C313     CTL2    -0.180000       12.0110           0
      2829 MEMB     17       DOPC     H13X     HAL2     0.900000E-01   1.00800           0
      2830 MEMB     17       DOPC     H13Y     HAL2     0.900000E-01   1.00800           0
      2831 MEMB     17       DOPC     C314     CTL2    -0.180000       12.0110           0
      2832 MEMB     17       DOPC     H14X     HAL2     0.900000E-01   1.00800           0
      2833 MEMB     17       DOPC     H14Y     HAL2     0.900000E-01   1.00800           0
      2834 MEMB     17       DOPC     C315     CTL2    -0.180000       12.0110           0
      2835 MEMB     17       DOPC     H15X     HAL2     0.900000E-01   1.00800           0
      2836 MEMB     17       DOPC     H15Y     HAL2     0.900000E-01   1.00800           0
      2837 MEMB     17       DOPC     C316     CTL2    -0.180000       12.0110           0
      2838 MEMB     17       DOPC     H16X     HAL2     0.900000E-01   1.00800           0
      2839 MEMB     17       DOPC     H16Y     HAL2     0.900000E-01   1.00800           0
      2840 MEMB     17       DOPC     C317     CTL2    -0.180000       12.0110           0
      2841 MEMB     17       DOPC     H17X     HAL2     0.900000E-01   1.00800           0
      2842 MEMB     17       DOPC     H17Y     HAL2     0.900000E-01   1.00800           0
      2843 MEMB     17       DOPC     C318     CTL3    -0.270000       12.0110           0
      2844 MEMB     17       DOPC     H18X     HAL3     0.900000E-01   1.00800           0
      2845 MEMB     17       DOPC     H18Y     HAL3     0.900000E-01   1.00800           0
      2846 MEMB     17       DOPC     H18Z     HAL3     0.900000E-01   1.00800           0
      2847 MEMB     18       DOPC     N        NTL     -0.600000       14.0070           0
      2848 MEMB     18       DOPC     C12      CTL2    -0.100000       12.0110           0
      2849 MEMB     18       DOPC     H12A     HL       0.250000       1.00800           0
      2850 MEMB     18       DOPC     H12B     HL       0.250000       1.00800           0
      2851 MEMB     18       DOPC     C13      CTL5    -0.350000       12.0110           0
      2852 MEMB     18       DOPC     H13A     HL       0.250000       1.00800           0
      2853 MEMB     18       DOPC     H13B     HL       0.250000       1.00800           0
      2854 MEMB     18       DOPC     H13C     HL       0.250000       1.00800           0
      2855 MEMB     18       DOPC     C14      CTL5    -0.350000       12.0110           0
      2856 MEMB     18       DOPC     H14A     HL       0.250000       1.00800           0
      2857 MEMB     18       DOPC     H14B     HL       0.250000       1.00800           0
      2858 MEMB     18       DOPC     H14C     HL       0.250000       1.00800           0
      2859 MEMB     18       DOPC     C15      CTL5    -0.350000       12.0110           0
      2860 MEMB     18       DOPC     H15A     HL       0.250000       1.00800           0
      2861 MEMB     18       DOPC     H15B     HL       0.250000       1.00800           0
      2862 MEMB     18       DOPC     H15C     HL       0.250000       1.00800           0
      2863 MEMB     18       DOPC     C11      CTL2    -0.800000E-01   12.0110           0
      2864 MEMB     18       DOPC     H11A     HAL2     0.900000E-01   1.00800           0
      2865 MEMB     18       DOPC     H11B     HAL2     0.900000E-01   1.00800           0
      2866 MEMB     18       DOPC     P        PL        1.50000       30.9740           0
      2867 MEMB     18       DOPC     O13      O2L     -0.780000       15.9994           0
      2868 MEMB     18       DOPC     O14      O2L     -0.780000       15.9994           0
      2869 MEMB     18       DOPC     O12      OSLP    -0.570000       15.9994           0
      2870 MEMB     18       DOPC     O11      OSLP    -0.570000       15.9994           0
      2871 MEMB     18       DOPC     C1       CTL2    -0.800000E-01   12.0110           0
      2872 MEMB     18       DOPC     HA       HAL2     0.900000E-01   1.00800           0
      2873 MEMB     18       DOPC     HB       HAL2     0.900000E-01   1.00800           0
      2874 MEMB     18       DOPC     C2       CTL1     0.170000       12.0110           0
      2875 MEMB     18       DOPC     HS       HAL1     0.900000E-01   1.00800           0
      2876 MEMB     18       DOPC     O21      OSL     -0.490000       15.9994           0
      2877 MEMB     18       DOPC     C21      CL       0.900000       12.0110           0
      2878 MEMB     18       DOPC     O22      OBL     -0.630000       15.9994           0
      2879 MEMB     18       DOPC     C22      CTL2    -0.220000       12.0110           0
      2880 MEMB     18       DOPC     H2R      HAL2     0.900000E-01   1.00800           0
      2881 MEMB     18       DOPC     H2S      HAL2     0.900000E-01   1.00800           0
      2882 MEMB     18       DOPC     C3       CTL2     0.800000E-01   12.0110           0
      2883 MEMB     18       DOPC     HX       HAL2     0.900000E-01   1.00800           0
      2884 MEMB     18       DOPC     HY       HAL2     0.900000E-01   1.00800           0
      2885 MEMB     18       DOPC     O31      OSL     -0.490000       15.9994           0
      2886 MEMB     18       DOPC     C31      CL       0.900000       12.0110           0
      2887 MEMB     18       DOPC     O32      OBL     -0.630000       15.9994           0
      2888 MEMB     18       DOPC     C32      CTL2    -0.220000       12.0110           0
      2889 MEMB     18       DOPC     H2X      HAL2     0.900000E-01   1.00800           0
      2890 MEMB     18       DOPC     H2Y      HAL2     0.900000E-01   1.00800           0
      2891 MEMB     18       DOPC     C23      CTL2    -0.180000       12.0110           0
      2892 MEMB     18       DOPC     H3R      HAL2     0.900000E-01   1.00800           0
      2893 MEMB     18       DOPC     H3S      HAL2     0.900000E-01   1.00800           0
      2894 MEMB     18       DOPC     C24      CTL2    -0.180000       12.0110           0
      2895 MEMB     18       DOPC     H4R      HAL2     0.900000E-01   1.00800           0
      2896 MEMB     18       DOPC     H4S      HAL2     0.900000E-01   1.00800           0
      2897 MEMB     18       DOPC     C25      CTL2    -0.180000       12.0110           0
      2898 MEMB     18       DOPC     H5R      HAL2     0.900000E-01   1.00800           0
      2899 MEMB     18       DOPC     H5S      HAL2     0.900000E-01   1.00800           0
      2900 MEMB     18       DOPC     C26      CTL2    -0.180000       12.0110           0
      2901 MEMB     18       DOPC     H6R      HAL2     0.900000E-01   1.00800           0
      2902 MEMB     18       DOPC     H6S      HAL2     0.900000E-01   1.00800           0
      2903 MEMB     18       DOPC     C27      CTL2    -0.180000       12.0110           0
      2904 MEMB     18       DOPC     H7R      HAL2     0.900000E-01   1.00800           0
      2905 MEMB     18       DOPC     H7S      HAL2     0.900000E-01   1.00800           0
      2906 MEMB     18       DOPC     C28      CTL2    -0.180000       12.0110           0
      2907 MEMB     18       DOPC     H8R      HAL2     0.900000E-01   1.00800           0
      2908 MEMB     18       DOPC     H8S      HAL2     0.900000E-01   1.00800           0
      2909 MEMB     18       DOPC     C29      CEL1    -0.150000       12.0110           0
      2910 MEMB     18       DOPC     H9R      HEL1     0.150000       1.00800           0
      2911 MEMB     18       DOPC     C210     CEL1    -0.150000       12.0110           0
      2912 MEMB     18       DOPC     H10R     HEL1     0.150000       1.00800           0
      2913 MEMB     18       DOPC     C211     CTL2    -0.180000       12.0110           0
      2914 MEMB     18       DOPC     H11R     HAL2     0.900000E-01   1.00800           0
      2915 MEMB     18       DOPC     H11S     HAL2     0.900000E-01   1.00800           0
      2916 MEMB     18       DOPC     C212     CTL2    -0.180000       12.0110           0
      2917 MEMB     18       DOPC     H12R     HAL2     0.900000E-01   1.00800           0
      2918 MEMB     18       DOPC     H12S     HAL2     0.900000E-01   1.00800           0
      2919 MEMB     18       DOPC     C213     CTL2    -0.180000       12.0110           0
      2920 MEMB     18       DOPC     H13R     HAL2     0.900000E-01   1.00800           0
      2921 MEMB     18       DOPC     H13S     HAL2     0.900000E-01   1.00800           0
      2922 MEMB     18       DOPC     C214     CTL2    -0.180000       12.0110           0
      2923 MEMB     18       DOPC     H14R     HAL2     0.900000E-01   1.00800           0
      2924 MEMB     18       DOPC     H14S     HAL2     0.900000E-01   1.00800           0
      2925 MEMB     18       DOPC     C215     CTL2    -0.180000       12.0110           0
      2926 MEMB     18       DOPC     H15R     HAL2     0.900000E-01   1.00800           0
      2927 MEMB     18       DOPC     H15S     HAL2     0.900000E-01   1.00800           0
      2928 MEMB     18       DOPC     C216     CTL2    -0.180000       12.0110           0
      2929 MEMB     18       DOPC     H16R     HAL2     0.900000E-01   1.00800           0
      2930 MEMB     18       DOPC     H16S     HAL2     0.900000E-01   1.00800           0
      2931 MEMB     18       DOPC     C217     CTL2    -0.180000       12.0110           0
      2932 MEMB     18       DOPC     H17R     HAL2     0.900000E-01   1.00800           0
      2933 MEMB     18       DOPC     H17S     HAL2     0.900000E-01   1.00800           0
      2934 MEMB     18       DOPC     C218     CTL3    -0.270000       12.0110           0
      2935 MEMB     18       DOPC     H18R     HAL3     0.900000E-01   1.00800           0
      2936 MEMB     18       DOPC     H18S     HAL3     0.900000E-01   1.00800           0
      2937 MEMB     18       DOPC     H18T     HAL3     0.900000E-01   1.00800           0
      2938 MEMB     18       DOPC     C33      CTL2    -0.180000       12.0110           0
      2939 MEMB     18       DOPC     H3X      HAL2     0.900000E-01   1.00800           0
      2940 MEMB     18       DOPC     H3Y      HAL2     0.900000E-01   1.00800           0
      2941 MEMB     18       DOPC     C34      CTL2    -0.180000       12.0110           0
      2942 MEMB     18       DOPC     H4X      HAL2     0.900000E-01   1.00800           0
      2943 MEMB     18       DOPC     H4Y      HAL2     0.900000E-01   1.00800           0
      2944 MEMB     18       DOPC     C35      CTL2    -0.180000       12.0110           0
      2945 MEMB     18       DOPC     H5X      HAL2     0.900000E-01   1.00800           0
      2946 MEMB     18       DOPC     H5Y      HAL2     0.900000E-01   1.00800           0
      2947 MEMB     18       DOPC     C36      CTL2    -0.180000       12.0110           0
      2948 MEMB     18       DOPC     H6X      HAL2     0.900000E-01   1.00800           0
      2949 MEMB     18       DOPC     H6Y      HAL2     0.900000E-01   1.00800           0
      2950 MEMB     18       DOPC     C37      CTL2    -0.180000       12.0110           0
      2951 MEMB     18       DOPC     H7X      HAL2     0.900000E-01   1.00800           0
      2952 MEMB     18       DOPC     H7Y      HAL2     0.900000E-01   1.00800           0
      2953 MEMB     18       DOPC     C38      CTL2    -0.180000       12.0110           0
      2954 MEMB     18       DOPC     H8X      HAL2     0.900000E-01   1.00800           0
      2955 MEMB     18       DOPC     H8Y      HAL2     0.900000E-01   1.00800           0
      2956 MEMB     18       DOPC     C39      CEL1    -0.150000       12.0110           0
      2957 MEMB     18       DOPC     H9X      HEL1     0.150000       1.00800           0
      2958 MEMB     18       DOPC     C310     CEL1    -0.150000       12.0110           0
      2959 MEMB     18       DOPC     H10X     HEL1     0.150000       1.00800           0
      2960 MEMB     18       DOPC     C311     CTL2    -0.180000       12.0110           0
      2961 MEMB     18       DOPC     H11X     HAL2     0.900000E-01   1.00800           0
      2962 MEMB     18       DOPC     H11Y     HAL2     0.900000E-01   1.00800           0
      2963 MEMB     18       DOPC     C312     CTL2    -0.180000       12.0110           0
      2964 MEMB     18       DOPC     H12X     HAL2     0.900000E-01   1.00800           0
      2965 MEMB     18       DOPC     H12Y     HAL2     0.900000E-01   1.00800           0
      2966 MEMB     18       DOPC     C313     CTL2    -0.180000       12.0110           0
      2967 MEMB     18       DOPC     H13X     HAL2     0.900000E-01   1.00800           0
      2968 MEMB     18       DOPC     H13Y     HAL2     0.900000E-01   1.00800           0
      2969 MEMB     18       DOPC     C314     CTL2    -0.180000       12.0110           0
      2970 MEMB     18       DOPC     H14X     HAL2     0.900000E-01   1.00800           0
      2971 MEMB     18       DOPC     H14Y     HAL2     0.900000E-01   1.00800           0
      2972 MEMB     18       DOPC     C315     CTL2    -0.180000       12.0110           0
      2973 MEMB     18       DOPC     H15X     HAL2     0.900000E-01   1.00800           0
      2974 MEMB     18       DOPC     H15Y     HAL2     0.900000E-01   1.00800           0
      2975 MEMB     18       DOPC     C316     CTL2    -0.180000       12.0110           0
      2976 MEMB     18       DOPC     H16X     HAL2     0.900000E-01   1.00800           0
      2977 MEMB     18       DOPC     H16Y     HAL2     0.900000E-01   1.00800           0
      2978 MEMB     18       DOPC     C317     CTL2    -0.180000       12.0110           0
      2979 MEMB     18       DOPC     H17X     HAL2     0.900000E-01   1.00800           0
      2980 MEMB     18       DOPC     H17Y     HAL2     0.900000E-01   1.00800           0
      2981 MEMB     18       DOPC     C318     CTL3    -0.270000       12.0110           0
      2982 MEMB     18       DOPC     H18X     HAL3     0.900000E-01   1.00800           0
      2983 MEMB     18       DOPC     H18Y     HAL3     0.900000E-01   1.00800           0
      2984 MEMB     18       DOPC     H18Z     HAL3     0.900000E-01   1.00800           0
      2985 MEMB     19       DOPC     N        NTL     -0.600000       14.0070           0
      2986 MEMB     19       DOPC     C12      CTL2    -0.100000       12.0110           0
      2987 MEMB     19       DOPC     H12A     HL       0.250000       1.00800           0
      2988 MEMB     19       DOPC     H12B     HL       0.250000       1.00800           0
      2989 MEMB     19       DOPC     C13      CTL5    -0.350000       12.0110           0
      2990 MEMB     19       DOPC     H13A     HL       0.250000       1.00800           0
      2991 MEMB     19       DOPC     H13B     HL       0.250000       1.00800           0
      2992 MEMB     19       DOPC     H13C     HL       0.250000       1.00800           0
      2993 MEMB     19       DOPC     C14      CTL5    -0.350000       12.0110           0
      2994 MEMB     19       DOPC     H14A     HL       0.250000       1.00800           0
      2995 MEMB     19       DOPC     H14B     HL       0.250000       1.00800           0
      2996 MEMB     19       DOPC     H14C     HL       0.250000       1.00800           0
      2997 MEMB     19       DOPC     C15      CTL5    -0.350000       12.0110           0
      2998 MEMB     19       DOPC     H15A     HL       0.250000       1.00800           0
      2999 MEMB     19       DOPC     H15B     HL       0.250000       1.00800           0
      3000 MEMB     19       DOPC     H15C     HL       0.250000       1.00800           0
      3001 MEMB     19       DOPC     C11      CTL2    -0.800000E-01   12.0110           0
      3002 MEMB     19       DOPC     H11A     HAL2     0.900000E-01   1.00800           0
      3003 MEMB     19       DOPC     H11B     HAL2     0.900000E-01   1.00800           0
      3004 MEMB     19       DOPC     P        PL        1.50000       30.9740           0
      3005 MEMB     19       DOPC     O13      O2L     -0.780000       15.9994           0
      3006 MEMB     19       DOPC     O14      O2L     -0.780000       15.9994           0
      3007 MEMB     19       DOPC     O12      OSLP    -0.570000       15.9994           0
      3008 MEMB     19       DOPC     O11      OSLP    -0.570000       15.9994           0
      3009 MEMB     19       DOPC     C1       CTL2    -0.800000E-01   12.0110           0
      3010 MEMB     19       DOPC     HA       HAL2     0.900000E-01   1.00800           0
      3011 MEMB     19       DOPC     HB       HAL2     0.900000E-01   1.00800           0
      3012 MEMB     19       DOPC     C2       CTL1     0.170000       12.0110           0
      3013 MEMB     19       DOPC     HS       HAL1     0.900000E-01   1.00800           0
      3014 MEMB     19       DOPC     O21      OSL     -0.490000       15.9994           0
      3015 MEMB     19       DOPC     C21      CL       0.900000       12.0110           0
      3016 MEMB     19       DOPC     O22      OBL     -0.630000       15.9994           0
      3017 MEMB     19       DOPC     C22      CTL2    -0.220000       12.0110           0
      3018 MEMB     19       DOPC     H2R      HAL2     0.900000E-01   1.00800           0
      3019 MEMB     19       DOPC     H2S      HAL2     0.900000E-01   1.00800           0
      3020 MEMB     19       DOPC     C3       CTL2     0.800000E-01   12.0110           0
      3021 MEMB     19       DOPC     HX       HAL2     0.900000E-01   1.00800           0
      3022 MEMB     19       DOPC     HY       HAL2     0.900000E-01   1.00800           0
      3023 MEMB     19       DOPC     O31      OSL     -0.490000       15.9994           0
      3024 MEMB     19       DOPC     C31      CL       0.900000       12.0110           0
      3025 MEMB     19       DOPC     O32      OBL     -0.630000       15.9994           0
      3026 MEMB     19       DOPC     C32      CTL2    -0.220000       12.0110           0
      3027 MEMB     19       DOPC     H2X      HAL2     0.900000E-01   1.00800           0
      3028 MEMB     19       DOPC     H2Y      HAL2     0.900000E-01   1.00800           0
      3029 MEMB     19       DOPC     C23      CTL2    -0.180000       12.0110           0
      3030 MEMB     19       DOPC     H3R      HAL2     0.900000E-01   1.00800           0
      3031 MEMB     19       DOPC     H3S      HAL2     0.900000E-01   1.00800           0
      3032 MEMB     19       DOPC     C24      CTL2    -0.180000       12.0110           0
      3033 MEMB     19       DOPC     H4R      HAL2     0.900000E-01   1.00800           0
      3034 MEMB     19       DOPC     H4S      HAL2     0.900000E-01   1.00800           0
      3035 MEMB     19       DOPC     C25      CTL2    -0.180000       12.0110           0
      3036 MEMB     19       DOPC     H5R      HAL2     0.900000E-01   1.00800           0
      3037 MEMB     19       DOPC     H5S      HAL2     0.900000E-01   1.00800           0
      3038 MEMB     19       DOPC     C26      CTL2    -0.180000       12.0110           0
      3039 MEMB     19       DOPC     H6R      HAL2     0.900000E-01   1.00800           0
      3040 MEMB     19       DOPC     H6S      HAL2     0.900000E-01   1.00800           0
      3041 MEMB     19       DOPC     C27      CTL2    -0.180000       12.0110           0
      3042 MEMB     19       DOPC     H7R      HAL2     0.900000E-01   1.00800           0
      3043 MEMB     19       DOPC     H7S      HAL2     0.900000E-01   1.00800           0
      3044 MEMB     19       DOPC     C28      CTL2    -0.180000       12.0110           0
      3045 MEMB     19       DOPC     H8R      HAL2     0.900000E-01   1.00800           0
      3046 MEMB     19       DOPC     H8S      HAL2     0.900000E-01   1.00800           0
      3047 MEMB     19       DOPC     C29      CEL1    -0.150000       12.0110           0
      3048 MEMB     19       DOPC     H9R      HEL1     0.150000       1.00800           0
      3049 MEMB     19       DOPC     C210     CEL1    -0.150000       12.0110           0
      3050 MEMB     19       DOPC     H10R     HEL1     0.150000       1.00800           0
      3051 MEMB     19       DOPC     C211     CTL2    -0.180000       12.0110           0
      3052 MEMB     19       DOPC     H11R     HAL2     0.900000E-01   1.00800           0
      3053 MEMB     19       DOPC     H11S     HAL2     0.900000E-01   1.00800           0
      3054 MEMB     19       DOPC     C212     CTL2    -0.180000       12.0110           0
      3055 MEMB     19       DOPC     H12R     HAL2     0.900000E-01   1.00800           0
      3056 MEMB     19       DOPC     H12S     HAL2     0.900000E-01   1.00800           0
      3057 MEMB     19       DOPC     C213     CTL2    -0.180000       12.0110           0
      3058 MEMB     19       DOPC     H13R     HAL2     0.900000E-01   1.00800           0
      3059 MEMB     19       DOPC     H13S     HAL2     0.900000E-01   1.00800           0
      3060 MEMB     19       DOPC     C214     CTL2    -0.180000       12.0110           0
      3061 MEMB     19       DOPC     H14R     HAL2     0.900000E-01   1.00800           0
      3062 MEMB     19       DOPC     H14S     HAL2     0.900000E-01   1.00800           0
      3063 MEMB     19       DOPC     C215     CTL2    -0.180000       12.0110           0
      3064 MEMB     19       DOPC     H15R     HAL2     0.900000E-01   1.00800           0
      3065 MEMB     19       DOPC     H15S     HAL2     0.900000E-01   1.00800           0
      3066 MEMB     19       DOPC     C216     CTL2    -0.180000       12.0110           0
      3067 MEMB     19       DOPC     H16R     HAL2     0.900000E-01   1.00800           0
      3068 MEMB     19       DOPC     H16S     HAL2     0.900000E-01   1.00800           0
      3069 MEMB     19       DOPC     C217     CTL2    -0.180000       12.0110           0
      3070 MEMB     19       DOPC     H17R     HAL2     0.900000E-01   1.00800           0
      3071 MEMB     19       DOPC     H17S     HAL2     0.900000E-01   1.00800           0
      3072 MEMB     19       DOPC     C218     CTL3    -0.270000       12.0110           0
      3073 MEMB     19       DOPC     H18R     HAL3     0.900000E-01   1.00800           0
      3074 MEMB     19       DOPC     H18S     HAL3     0.900000E-01   1.00800           0
      3075 MEMB     19       DOPC     H18T     HAL3     0.900000E-01   1.00800           0
      3076 MEMB     19       DOPC     C33      CTL2    -0.180000       12.0110           0
      3077 MEMB     19       DOPC     H3X      HAL2     0.900000E-01   1.00800           0
      3078 MEMB     19       DOPC     H3Y      HAL2     0.900000E-01   1.00800           0
      3079 MEMB     19       DOPC     C34      CTL2    -0.180000       12.0110           0
      3080 MEMB     19       DOPC     H4X      HAL2     0.900000E-01   1.00800           0
      3081 MEMB     19       DOPC     H4Y      HAL2     0.900000E-01   1.00800           0
      3082 MEMB     19       DOPC     C35      CTL2    -0.180000       12.0110           0
      3083 MEMB     19       DOPC     H5X      HAL2     0.900000E-01   1.00800           0
      3084 MEMB     19       DOPC     H5Y      HAL2     0.900000E-01   1.00800           0
      3085 MEMB     19       DOPC     C36      CTL2    -0.180000       12.0110           0
      3086 MEMB     19       DOPC     H6X      HAL2     0.900000E-01   1.00800           0
      3087 MEMB     19       DOPC     H6Y      HAL2     0.900000E-01   1.00800           0
      3088 MEMB     19       DOPC     C37      CTL2    -0.180000       12.0110           0
      3089 MEMB     19       DOPC     H7X      HAL2     0.900000E-01   1.00800           0
      3090 MEMB     19       DOPC     H7Y      HAL2     0.900000E-01   1.00800           0
      3091 MEMB     19       DOPC     C38      CTL2    -0.180000       12.0110           0
      3092 MEMB     19       DOPC     H8X      HAL2     0.900000E-01   1.00800           0
      3093 MEMB     19       DOPC     H8Y      HAL2     0.900000E-01   1.00800           0
      3094 MEMB     19       DOPC     C39      CEL1    -0.150000       12.0110           0
      3095 MEMB     19       DOPC     H9X      HEL1     0.150000       1.00800           0
      3096 MEMB     19       DOPC     C310     CEL1    -0.150000       12.0110           0
      3097 MEMB     19       DOPC     H10X     HEL1     0.150000       1.00800           0
      3098 MEMB     19       DOPC     C311     CTL2    -0.180000       12.0110           0
      3099 MEMB     19       DOPC     H11X     HAL2     0.900000E-01   1.00800           0
      3100 MEMB     19       DOPC     H11Y     HAL2     0.900000E-01   1.00800           0
      3101 MEMB     19       DOPC     C312     CTL2    -0.180000       12.0110           0
      3102 MEMB     19       DOPC     H12X     HAL2     0.900000E-01   1.00800           0
      3103 MEMB     19       DOPC     H12Y     HAL2     0.900000E-01   1.00800           0
      3104 MEMB     19       DOPC     C313     CTL2    -0.180000       12.0110           0
      3105 MEMB     19       DOPC     H13X     HAL2     0.900000E-01   1.00800           0
      3106 MEMB     19       DOPC     H13Y     HAL2     0.900000E-01   1.00800           0
      3107 MEMB     19       DOPC     C314     CTL2    -0.180000       12.0110           0
      3108 MEMB     19       DOPC     H14X     HAL2     0.900000E-01   1.00800           0
      3109 MEMB     19       DOPC     H14Y     HAL2     0.900000E-01   1.00800           0
      3110 MEMB     19       DOPC     C315     CTL2    -0.180000       12.0110           0
      3111 MEMB     19       DOPC     H15X     HAL2     0.900000E-01   1.00800           0
      3112 MEMB     19       DOPC     H15Y     HAL2     0.900000E-01   1.00800           0
      3113 MEMB     19       DOPC     C316     CTL2    -0.180000       12.0110           0
      3114 MEMB     19       DOPC     H16X     HAL2     0.900000E-01   1.00800           0
      3115 MEMB     19       DOPC     H16Y     HAL2     0.900000E-01   1.00800           0
      3116 MEMB     19       DOPC     C317     CTL2    -0.180000       12.0110           0
      3117 MEMB     19       DOPC     H17X     HAL2     0.900000E-01   1.00800           0
      3118 MEMB     19       DOPC     H17Y     HAL2     0.900000E-01   1.00800           0
      3119 MEMB     19       DOPC     C318     CTL3    -0.270000       12.0110           0
      3120 MEMB     19       DOPC     H18X     HAL3     0.900000E-01   1.00800           0
      3121 MEMB     19       DOPC     H18Y     HAL3     0.900000E-01   1.00800           0
      3122 MEMB     19       DOPC     H18Z     HAL3     0.900000E-01   1.00800           0
      3123 MEMB     20       DOPC     N        NTL     -0.600000       14.0070           0
      3124 MEMB     20       DOPC     C12      CTL2    -0.100000       12.0110           0
      3125 MEMB     20       DOPC     H12A     HL       0.250000       1.00800           0
      3126 MEMB     20       DOPC     H12B     HL       0.250000       1.00800           0
      3127 MEMB     20       DOPC     C13      CTL5    -0.350000       12.0110           0
      3128 MEMB     20       DOPC     H13A     HL       0.250000       1.00800           0
      3129 MEMB     20       DOPC     H13B     HL       0.250000       1.00800           0
      3130 MEMB     20       DOPC     H13C     HL       0.250000       1.00800           0
      3131 MEMB     20       DOPC     C14      CTL5    -0.350000       12.0110           0
      3132 MEMB     20       DOPC     H14A     HL       0.250000       1.00800           0
      3133 MEMB     20       DOPC     H14B     HL       0.250000       1.00800           0
      3134 MEMB     20       DOPC     H14C     HL       0.250000       1.00800           0
      3135 MEMB     20       DOPC     C15      CTL5    -0.350000       12.0110           0
      3136 MEMB     20       DOPC     H15A     HL       0.250000       1.00800           0
      3137 MEMB     20       DOPC     H15B     HL       0.250000       1.00800           0
      3138 MEMB     20       DOPC     H15C     HL       0.250000       1.00800           0
      3139 MEMB     20       DOPC     C11      CTL2    -0.800000E-01   12.0110           0
      3140 MEMB     20       DOPC     H11A     HAL2     0.900000E-01   1.00800           0
      3141 MEMB     20       DOPC     H11B     HAL2     0.900000E-01   1.00800           0
      3142 MEMB     20       DOPC     P        PL        1.50000       30.9740           0
      3143 MEMB     20       DOPC     O13      O2L     -0.780000       15.9994           0
      3144 MEMB     20       DOPC     O14      O2L     -0.780000       15.9994           0
      3145 MEMB     20       DOPC     O12      OSLP    -0.570000       15.9994           0
      3146 MEMB     20       DOPC     O11      OSLP    -0.570000       15.9994           0
      3147 MEMB     20       DOPC     C1       CTL2    -0.800000E-01   12.0110           0
      3148 MEMB     20       DOPC     HA       HAL2     0.900000E-01   1.00800           0
      3149 MEMB     20       DOPC     HB       HAL2     0.900000E-01   1.00800           0
      3150 MEMB     20       DOPC     C2       CTL1     0.170000       12.0110           0
      3151 MEMB     20       DOPC     HS       HAL1     0.900000E-01   1.00800           0
      3152 MEMB     20       DOPC     O21      OSL     -0.490000       15.9994           0
      3153 MEMB     20       DOPC     C21      CL       0.900000       12.0110           0
      3154 MEMB     20       DOPC     O22      OBL     -0.630000       15.9994           0
      3155 MEMB     20       DOPC     C22      CTL2    -0.220000       12.0110           0
      3156 MEMB     20       DOPC     H2R      HAL2     0.900000E-01   1.00800           0
      3157 MEMB     20       DOPC     H2S      HAL2     0.900000E-01   1.00800           0
      3158 MEMB     20       DOPC     C3       CTL2     0.800000E-01   12.0110           0
      3159 MEMB     20       DOPC     HX       HAL2     0.900000E-01   1.00800           0
      3160 MEMB     20       DOPC     HY       HAL2     0.900000E-01   1.00800           0
      3161 MEMB     20       DOPC     O31      OSL     -0.490000       15.9994           0
      3162 MEMB     20       DOPC     C31      CL       0.900000       12.0110           0
      3163 MEMB     20       DOPC     O32      OBL     -0.630000       15.9994           0
      3164 MEMB     20       DOPC     C32      CTL2    -0.220000       12.0110           0
      3165 MEMB     20       DOPC     H2X      HAL2     0.900000E-01   1.00800           0
      3166 MEMB     20       DOPC     H2Y      HAL2     0.900000E-01   1.00800           0
      3167 MEMB     20       DOPC     C23      CTL2    -0.180000       12.0110           0
      3168 MEMB     20       DOPC     H3R      HAL2     0.900000E-01   1.00800           0
      3169 MEMB     20       DOPC     H3S      HAL2     0.900000E-01   1.00800           0
      3170 MEMB     20       DOPC     C24      CTL2    -0.180000       12.0110           0
      3171 MEMB     20       DOPC     H4R      HAL2     0.900000E-01   1.00800           0
      3172 MEMB     20       DOPC     H4S      HAL2     0.900000E-01   1.00800           0
      3173 MEMB     20       DOPC     C25      CTL2    -0.180000       12.0110           0
      3174 MEMB     20       DOPC     H5R      HAL2     0.900000E-01   1.00800           0
      3175 MEMB     20       DOPC     H5S      HAL2     0.900000E-01   1.00800           0
      3176 MEMB     20       DOPC     C26      CTL2    -0.180000       12.0110           0
      3177 MEMB     20       DOPC     H6R      HAL2     0.900000E-01   1.00800           0
      3178 MEMB     20       DOPC     H6S      HAL2     0.900000E-01   1.00800           0
      3179 MEMB     20       DOPC     C27      CTL2    -0.180000       12.0110           0
      3180 MEMB     20       DOPC     H7R      HAL2     0.900000E-01   1.00800           0
      3181 MEMB     20       DOPC     H7S      HAL2     0.900000E-01   1.00800           0
      3182 MEMB     20       DOPC     C28      CTL2    -0.180000       12.0110           0
      3183 MEMB     20       DOPC     H8R      HAL2     0.900000E-01   1.00800           0
      3184 MEMB     20       DOPC     H8S      HAL2     0.900000E-01   1.00800           0
      3185 MEMB     20       DOPC     C29      CEL1    -0.150000       12.0110           0
      3186 MEMB     20       DOPC     H9R      HEL1     0.150000       1.00800           0
      3187 MEMB     20       DOPC     C210     CEL1    -0.150000       12.0110           0
      3188 MEMB     20       DOPC     H10R     HEL1     0.150000       1.00800           0
      3189 MEMB     20       DOPC     C211     CTL2    -0.180000       12.0110           0
      3190 MEMB     20       DOPC     H11R     HAL2     0.900000E-01   1.00800           0
      3191 MEMB     20       DOPC     H11S     HAL2     0.900000E-01   1.00800           0
      3192 MEMB     20       DOPC     C212     CTL2    -0.180000       12.0110           0
      3193 MEMB     20       DOPC     H12R     HAL2     0.900000E-01   1.00800           0
      3194 MEMB     20       DOPC     H12S     HAL2     0.900000E-01   1.00800           0
      3195 MEMB     20       DOPC     C213     CTL2    -0.180000       12.0110           0
      3196 MEMB     20       DOPC     H13R     HAL2     0.900000E-01   1.00800           0
      3197 MEMB     20       DOPC     H13S     HAL2     0.900000E-01   1.00800           0
      3198 MEMB     20       DOPC     C214     CTL2    -0.180000       12.0110           0
      3199 MEMB     20       DOPC     H14R     HAL2     0.900000E-01   1.00800           0
      3200 MEMB     20       DOPC     H14S     HAL2     0.900000E-01   1.00800           0
      3201 MEMB     20       DOPC     C215     CTL2    -0.180000       12.0110           0
      3202 MEMB     20       DOPC     H15R     HAL2     0.900000E-01   1.00800           0
      3203 MEMB     20       DOPC     H15S     HAL2     0.900000E-01   1.00800           0
      3204 MEMB     20       DOPC     C216     CTL2    -0.180000       12.0110           0
      3205 MEMB     20       DOPC     H16R     HAL2     0.900000E-01   1.00800           0
      3206 MEMB     20       DOPC     H16S     HAL2     0.900000E-01   1.00800           0
      3207 MEMB     20       DOPC     C217     CTL2    -0.180000       12.0110           0
      3208 MEMB     20       DOPC     H17R     HAL2     0.900000E-01   1.00800           0
      3209 MEMB     20       DOPC     H17S     HAL2     0.900000E-01   1.00800           0
      3210 MEMB     20       DOPC     C218     CTL3    -0.270000       12.0110           0
      3211 MEMB     20       DOPC     H18R     HAL3     0.900000E-01   1.00800           0
      3212 MEMB     20       DOPC     H18S     HAL3     0.900000E-01   1.00800           0
      3213 MEMB     20       DOPC     H18T     HAL3     0.900000E-01   1.00800           0
      3214 MEMB     20       DOPC     C33      CTL2    -0.180000       12.0110           0
      3215 MEMB     20       DOPC     H3X      HAL2     0.900000E-01   1.00800           0
      3216 MEMB     20       DOPC     H3Y      HAL2     0.900000E-01   1.00800           0
      3217 MEMB     20       DOPC     C34      CTL2    -0.180000       12.0110           0
      3218 MEMB     20       DOPC     H4X      HAL2     0.900000E-01   1.00800           0
      3219 MEMB     20       DOPC     H4Y      HAL2     0.900000E-01   1.00800           0
      3220 MEMB     20       DOPC     C35      CTL2    -0.180000       12.0110           0
      3221 MEMB     20       DOPC     H5X      HAL2     0.900000E-01   1.00800           0
      3222 MEMB     20       DOPC     H5Y      HAL2     0.900000E-01   1.00800           0
      3223 MEMB     20       DOPC     C36      CTL2    -0.180000       12.0110           0
      3224 MEMB     20       DOPC     H6X      HAL2     0.900000E-01   1.00800           0
      3225 MEMB     20       DOPC     H6Y      HAL2     0.900000E-01   1.00800           0
      3226 MEMB     20       DOPC     C37      CTL2    -0.180000       12.0110           0
      3227 MEMB     20       DOPC     H7X      HAL2     0.900000E-01   1.00800           0
      3228 MEMB     20       DOPC     H7Y      HAL2     0.900000E-01   1.00800           0
      3229 MEMB     20       DOPC     C38      CTL2    -0.180000       12.0110           0
      3230 MEMB     20       DOPC     H8X      HAL2     0.900000E-01   1.00800           0
      3231 MEMB     20       DOPC     H8Y      HAL2     0.900000E-01   1.00800           0
      3232 MEMB     20       DOPC     C39      CEL1    -0.150000       12.0110           0
      3233 MEMB     20       DOPC     H9X      HEL1     0.150000       1.00800           0
      3234 MEMB     20       DOPC     C310     CEL1    -0.150000       12.0110           0
      3235 MEMB     20       DOPC     H10X     HEL1     0.150000       1.00800           0
      3236 MEMB     20       DOPC     C311     CTL2    -0.180000       12.0110           0
      3237 MEMB     20       DOPC     H11X     HAL2     0.900000E-01   1.00800           0
      3238 MEMB     20       DOPC     H11Y     HAL2     0.900000E-01   1.00800           0
      3239 MEMB     20       DOPC     C312     CTL2    -0.180000       12.0110           0
      3240 MEMB     20       DOPC     H12X     HAL2     0.900000E-01   1.00800           0
      3241 MEMB     20       DOPC     H12Y     HAL2     0.900000E-01   1.00800           0
      3242 MEMB     20       DOPC     C313     CTL2    -0.180000       12.0110           0
      3243 MEMB     20       DOPC     H13X     HAL2     0.900000E-01   1.00800           0
      3244 MEMB     20       DOPC     H13Y     HAL2     0.900000E-01   1.00800           0
      3245 MEMB     20       DOPC     C314     CTL2    -0.180000       12.0110           0
      3246 MEMB     20       DOPC     H14X     HAL2     0.900000E-01   1.00800           0
      3247 MEMB     20       DOPC     H14Y     HAL2     0.900000E-01   1.00800           0
      3248 MEMB     20       DOPC     C315     CTL2    -0.180000       12.0110           0
      3249 MEMB     20       DOPC     H15X     HAL2     0.900000E-01   1.00800           0
      3250 MEMB     20       DOPC     H15Y     HAL2     0.900000E-01   1.00800           0
      3251 MEMB     20       DOPC     C316     CTL2    -0.180000       12.0110           0
      3252 MEMB     20       DOPC     H16X     HAL2     0.900000E-01   1.00800           0
      3253 MEMB     20       DOPC     H16Y     HAL2     0.900000E-01   1.00800           0
      3254 MEMB     20       DOPC     C317     CTL2    -0.180000       12.0110           0
      3255 MEMB     20       DOPC     H17X     HAL2     0.900000E-01   1.00800           0
      3256 MEMB     20       DOPC     H17Y     HAL2     0.900000E-01   1.00800           0
      3257 MEMB     20       DOPC     C318     CTL3    -0.270000       12.0110           0
      3258 MEMB     20       DOPC     H18X     HAL3     0.900000E-01   1.00800           0
      3259 MEMB     20       DOPC     H18Y     HAL3     0.900000E-01   1.00800           0
      3260 MEMB     20       DOPC     H18Z     HAL3     0.900000E-01   1.00800           0
      3261 MEMB     21       DOPC     N        NTL     -0.600000       14.0070           0
      3262 MEMB     21       DOPC     C12      CTL2    -0.100000       12.0110           0
      3263 MEMB     21       DOPC     H12A     HL       0.250000       1.00800           0
      3264 MEMB     21       DOPC     H12B     HL       0.250000       1.00800           0
      3265 MEMB     21       DOPC     C13      CTL5    -0.350000       12.0110           0
      3266 MEMB     21       DOPC     H13A     HL       0.250000       1.00800           0
      3267 MEMB     21       DOPC     H13B     HL       0.250000       1.00800           0
      3268 MEMB     21       DOPC     H13C     HL       0.250000       1.00800           0
      3269 MEMB     21       DOPC     C14      CTL5    -0.350000       12.0110           0
      3270 MEMB     21       DOPC     H14A     HL       0.250000       1.00800           0
      3271 MEMB     21       DOPC     H14B     HL       0.250000       1.00800           0
      3272 MEMB     21       DOPC     H14C     HL       0.250000       1.00800           0
      3273 MEMB     21       DOPC     C15      CTL5    -0.350000       12.0110           0
      3274 MEMB     21       DOPC     H15A     HL       0.250000       1.00800           0
      3275 MEMB     21       DOPC     H15B     HL       0.250000       1.00800           0
      3276 MEMB     21       DOPC     H15C     HL       0.250000       1.00800           0
      3277 MEMB     21       DOPC     C11      CTL2    -0.800000E-01   12.0110           0
      3278 MEMB     21       DOPC     H11A     HAL2     0.900000E-01   1.00800           0
      3279 MEMB     21       DOPC     H11B     HAL2     0.900000E-01   1.00800           0
      3280 MEMB     21       DOPC     P        PL        1.50000       30.9740           0
      3281 MEMB     21       DOPC     O13      O2L     -0.780000       15.9994           0
      3282 MEMB     21       DOPC     O14      O2L     -0.780000       15.9994           0
      3283 MEMB     21       DOPC     O12      OSLP    -0.570000       15.9994           0
      3284 MEMB     21       DOPC     O11      OSLP    -0.570000       15.9994           0
      3285 MEMB     21       DOPC     C1       CTL2    -0.800000E-01   12.0110           0
      3286 MEMB     21       DOPC     HA       HAL2     0.900000E-01   1.00800           0
      3287 MEMB     21       DOPC     HB       HAL2     0.900000E-01   1.00800           0
      3288 MEMB     21       DOPC     C2       CTL1     0.170000       12.0110           0
      3289 MEMB     21       DOPC     HS       HAL1     0.900000E-01   1.00800           0
      3290 MEMB     21       DOPC     O21      OSL     -0.490000       15.9994           0
      3291 MEMB     21       DOPC     C21      CL       0.900000       12.0110           0
      3292 MEMB     21       DOPC     O22      OBL     -0.630000       15.9994           0
      3293 MEMB     21       DOPC     C22      CTL2    -0.220000       12.0110           0
      3294 MEMB     21       DOPC     H2R      HAL2     0.900000E-01   1.00800           0
      3295 MEMB     21       DOPC     H2S      HAL2     0.900000E-01   1.00800           0
      3296 MEMB     21       DOPC     C3       CTL2     0.800000E-01   12.0110           0
      3297 MEMB     21       DOPC     HX       HAL2     0.900000E-01   1.00800           0
      3298 MEMB     21       DOPC     HY       HAL2     0.900000E-01   1.00800           0
      3299 MEMB     21       DOPC     O31      OSL     -0.490000       15.9994           0
      3300 MEMB     21       DOPC     C31      CL       0.900000       12.0110           0
      3301 MEMB     21       DOPC     O32      OBL     -0.630000       15.9994           0
      3302 MEMB     21       DOPC     C32      CTL2    -0.220000       12.0110           0
      3303 MEMB     21       DOPC     H2X      HAL2     0.900000E-01   1.00800           0
      3304 MEMB     21       DOPC     H2Y      HAL2     0.900000E-01   1.00800           0
      3305 MEMB     21       DOPC     C23      CTL2    -0.180000       12.0110           0
      3306 MEMB     21       DOPC     H3R      HAL2     0.900000E-01   1.00800           0
      3307 MEMB     21       DOPC     H3S      HAL2     0.900000E-01   1.00800           0
      3308 MEMB     21       DOPC     C24      CTL2    -0.180000       12.0110           0
      3309 MEMB     21       DOPC     H4R      HAL2     0.900000E-01   1.00800           0
      3310 MEMB     21       DOPC     H4S      HAL2     0.900000E-01   1.00800           0
      3311 MEMB     21       DOPC     C25      CTL2    -0.180000       12.0110           0
      3312 MEMB     21       DOPC     H5R      HAL2     0.900000E-01   1.00800           0
      3313 MEMB     21       DOPC     H5S      HAL2     0.900000E-01   1.00800           0
      3314 MEMB     21       DOPC     C26      CTL2    -0.180000       12.0110           0
      3315 MEMB     21       DOPC     H6R      HAL2     0.900000E-01   1.00800           0
      3316 MEMB     21       DOPC     H6S      HAL2     0.900000E-01   1.00800           0
      3317 MEMB     21       DOPC     C27      CTL2    -0.180000       12.0110           0
      3318 MEMB     21       DOPC     H7R      HAL2     0.900000E-01   1.00800           0
      3319 MEMB     21       DOPC     H7S      HAL2     0.900000E-01   1.00800           0
      3320 MEMB     21       DOPC     C28      CTL2    -0.180000       12.0110           0
      3321 MEMB     21       DOPC     H8R      HAL2     0.900000E-01   1.00800           0
      3322 MEMB     21       DOPC     H8S      HAL2     0.900000E-01   1.00800           0
      3323 MEMB     21       DOPC     C29      CEL1    -0.150000       12.0110           0
      3324 MEMB     21       DOPC     H9R      HEL1     0.150000       1.00800           0
      3325 MEMB     21       DOPC     C210     CEL1    -0.150000       12.0110           0
      3326 MEMB     21       DOPC     H10R     HEL1     0.150000       1.00800           0
      3327 MEMB     21       DOPC     C211     CTL2    -0.180000       12.0110           0
      3328 MEMB     21       DOPC     H11R     HAL2     0.900000E-01   1.00800           0
      3329 MEMB     21       DOPC     H11S     HAL2     0.900000E-01   1.00800           0
      3330 MEMB     21       DOPC     C212     CTL2    -0.180000       12.0110           0
      3331 MEMB     21       DOPC     H12R     HAL2     0.900000E-01   1.00800           0
      3332 MEMB     21       DOPC     H12S     HAL2     0.900000E-01   1.00800           0
      3333 MEMB     21       DOPC     C213     CTL2    -0.180000       12.0110           0
      3334 MEMB     21       DOPC     H13R     HAL2     0.900000E-01   1.00800           0
      3335 MEMB     21       DOPC     H13S     HAL2     0.900000E-01   1.00800           0
      3336 MEMB     21       DOPC     C214     CTL2    -0.180000       12.0110           0
      3337 MEMB     21       DOPC     H14R     HAL2     0.900000E-01   1.00800           0
      3338 MEMB     21       DOPC     H14S     HAL2     0.900000E-01   1.00800           0
      3339 MEMB     21       DOPC     C215     CTL2    -0.180000       12.0110           0
      3340 MEMB     21       DOPC     H15R     HAL2     0.900000E-01   1.00800           0
      3341 MEMB     21       DOPC     H15S     HAL2     0.900000E-01   1.00800           0
      3342 MEMB     21       DOPC     C216     CTL2    -0.180000       12.0110           0
      3343 MEMB     21       DOPC     H16R     HAL2     0.900000E-01   1.00800           0
      3344 MEMB     21       DOPC     H16S     HAL2     0.900000E-01   1.00800           0
      3345 MEMB     21       DOPC     C217     CTL2    -0.180000       12.0110           0
      3346 MEMB     21       DOPC     H17R     HAL2     0.900000E-01   1.00800           0
      3347 MEMB     21       DOPC     H17S     HAL2     0.900000E-01   1.00800           0
      3348 MEMB     21       DOPC     C218     CTL3    -0.270000       12.0110           0
      3349 MEMB     21       DOPC     H18R     HAL3     0.900000E-01   1.00800           0
      3350 MEMB     21       DOPC     H18S     HAL3     0.900000E-01   1.00800           0
      3351 MEMB     21       DOPC     H18T     HAL3     0.900000E-01   1.00800           0
      3352 MEMB     21       DOPC     C33      CTL2    -0.180000       12.0110           0
      3353 MEMB     21       DOPC     H3X      HAL2     0.900000E-01   1.00800           0
      3354 MEMB     21       DOPC     H3Y      HAL2     0.900000E-01   1.00800           0
      3355 MEMB     21       DOPC     C34      CTL2    -0.180000       12.0110           0
      3356 MEMB     21       DOPC     H4X      HAL2     0.900000E-01   1.00800           0
      3357 MEMB     21       DOPC     H4Y      HAL2     0.900000E-01   1.00800           0
      3358 MEMB     21       DOPC     C35      CTL2    -0.180000       12.0110           0
      3359 MEMB     21       DOPC     H5X      HAL2     0.900000E-01   1.00800           0
      3360 MEMB     21       DOPC     H5Y      HAL2     0.900000E-01   1.00800           0
      3361 MEMB     21       DOPC     C36      CTL2    -0.180000       12.0110           0
      3362 MEMB     21       DOPC     H6X      HAL2     0.900000E-01   1.00800           0
      3363 MEMB     21       DOPC     H6Y      HAL2     0.900000E-01   1.00800           0
      3364 MEMB     21       DOPC     C37      CTL2    -0.180000       12.0110           0
      3365 MEMB     21       DOPC     H7X      HAL2     0.900000E-01   1.00800           0
      3366 MEMB     21       DOPC     H7Y      HAL2     0.900000E-01   1.00800           0
      3367 MEMB     21       DOPC     C38      CTL2    -0.180000       12.0110           0
      3368 MEMB     21       DOPC     H8X      HAL2     0.900000E-01   1.00800           0
      3369 MEMB     21       DOPC     H8Y      HAL2     0.900000E-01   1.00800           0
      3370 MEMB     21       DOPC     C39      CEL1    -0.150000       12.0110           0
      3371 MEMB     21       DOPC     H9X      HEL1     0.150000       1.00800           0
      3372 MEMB     21       DOPC     C310     CEL1    -0.150000       12.0110           0
      3373 MEMB     21       DOPC     H10X     HEL1     0.150000       1.00800           0
      3374 MEMB     21       DOPC     C311     CTL2    -0.180000       12.0110           0
      3375 MEMB     21       DOPC     H11X     HAL2     0.900000E-01   1.00800           0
      3376 MEMB     21       DOPC     H11Y     HAL2     0.900000E-01   1.00800           0
      3377 MEMB     21       DOPC     C312     CTL2    -0.180000       12.0110           0
      3378 MEMB     21       DOPC     H12X     HAL2     0.900000E-01   1.00800           0
      3379 MEMB     21       DOPC     H12Y     HAL2     0.900000E-01   1.00800           0
      3380 MEMB     21       DOPC     C313     CTL2    -0.180000       12.0110           0
      3381 MEMB     21       DOPC     H13X     HAL2     0.900000E-01   1.00800           0
      3382 MEMB     21       DOPC     H13Y     HAL2     0.900000E-01   1.00800           0
      3383 MEMB     21       DOPC     C314     CTL2    -0.180000       12.0110           0
      3384 MEMB     21       DOPC     H14X     HAL2     0.900000E-01   1.00800           0
      3385 MEMB     21       DOPC     H14Y     HAL2     0.900000E-01   1.00800           0
      3386 MEMB     21       DOPC     C315     CTL2    -0.180000       12.0110           0
      3387 MEMB     21       DOPC     H15X     HAL2     0.900000E-01   1.00800           0
      3388 MEMB     21       DOPC     H15Y     HAL2     0.900000E-01   1.00800           0
      3389 MEMB     21       DOPC     C316     CTL2    -0.180000       12.0110           0
      3390 MEMB     21       DOPC     H16X     HAL2     0.900000E-01   1.00800           0
      3391 MEMB     21       DOPC     H16Y     HAL2     0.900000E-01   1.00800           0
      3392 MEMB     21       DOPC     C317     CTL2    -0.180000       12.0110           0
      3393 MEMB     21       DOPC     H17X     HAL2     0.900000E-01   1.00800           0
      3394 MEMB     21       DOPC     H17Y     HAL2     0.900000E-01   1.00800           0
      3395 MEMB     21       DOPC     C318     CTL3    -0.270000       12.0110           0
      3396 MEMB     21       DOPC     H18X     HAL3     0.900000E-01   1.00800           0
      3397 MEMB     21       DOPC     H18Y     HAL3     0.900000E-01   1.00800           0
      3398 MEMB     21       DOPC     H18Z     HAL3     0.900000E-01   1.00800           0
      3399 MEMB     22       DOPC     N        NTL     -0.600000       14.0070           0
      3400 MEMB     22       DOPC     C12      CTL2    -0.100000       12.0110           0
      3401 MEMB     22       DOPC     H12A     HL       0.250000       1.00800           0
      3402 MEMB     22       DOPC     H12B     HL       0.250000       1.00800           0
      3403 MEMB     22       DOPC     C13      CTL5    -0.350000       12.0110           0
      3404 MEMB     22       DOPC     H13A     HL       0.250000       1.00800           0
      3405 MEMB     22       DOPC     H13B     HL       0.250000       1.00800           0
      3406 MEMB     22       DOPC     H13C     HL       0.250000       1.00800           0
      3407 MEMB     22       DOPC     C14      CTL5    -0.350000       12.0110           0
      3408 MEMB     22       DOPC     H14A     HL       0.250000       1.00800           0
      3409 MEMB     22       DOPC     H14B     HL       0.250000       1.00800           0
      3410 MEMB     22       DOPC     H14C     HL       0.250000       1.00800           0
      3411 MEMB     22       DOPC     C15      CTL5    -0.350000       12.0110           0
      3412 MEMB     22       DOPC     H15A     HL       0.250000       1.00800           0
      3413 MEMB     22       DOPC     H15B     HL       0.250000       1.00800           0
      3414 MEMB     22       DOPC     H15C     HL       0.250000       1.00800           0
      3415 MEMB     22       DOPC     C11      CTL2    -0.800000E-01   12.0110           0
      3416 MEMB     22       DOPC     H11A     HAL2     0.900000E-01   1.00800           0
      3417 MEMB     22       DOPC     H11B     HAL2     0.900000E-01   1.00800           0
      3418 MEMB     22       DOPC     P        PL        1.50000       30.9740           0
      3419 MEMB     22       DOPC     O13      O2L     -0.780000       15.9994           0
      3420 MEMB     22       DOPC     O14      O2L     -0.780000       15.9994           0
      3421 MEMB     22       DOPC     O12      OSLP    -0.570000       15.9994           0
      3422 MEMB     22       DOPC     O11      OSLP    -0.570000       15.9994           0
      3423 MEMB     22       DOPC     C1       CTL2    -0.800000E-01   12.0110           0
      3424 MEMB     22       DOPC     HA       HAL2     0.900000E-01   1.00800           0
      3425 MEMB     22       DOPC     HB       HAL2     0.900000E-01   1.00800           0
      3426 MEMB     22       DOPC     C2       CTL1     0.170000       12.0110           0
      3427 MEMB     22       DOPC     HS       HAL1     0.900000E-01   1.00800           0
      3428 MEMB     22       DOPC     O21      OSL     -0.490000       15.9994           0
      3429 MEMB     22       DOPC     C21      CL       0.900000       12.0110           0
      3430 MEMB     22       DOPC     O22      OBL     -0.630000       15.9994           0
      3431 MEMB     22       DOPC     C22      CTL2    -0.220000       12.0110           0
      3432 MEMB     22       DOPC     H2R      HAL2     0.900000E-01   1.00800           0
      3433 MEMB     22       DOPC     H2S      HAL2     0.900000E-01   1.00800           0
      3434 MEMB     22       DOPC     C3       CTL2     0.800000E-01   12.0110           0
      3435 MEMB     22       DOPC     HX       HAL2     0.900000E-01   1.00800           0
      3436 MEMB     22       DOPC     HY       HAL2     0.900000E-01   1.00800           0
      3437 MEMB     22       DOPC     O31      OSL     -0.490000       15.9994           0
      3438 MEMB     22       DOPC     C31      CL       0.900000       12.0110           0
      3439 MEMB     22       DOPC     O32      OBL     -0.630000       15.9994           0
      3440 MEMB     22       DOPC     C32      CTL2    -0.220000       12.0110           0
      3441 MEMB     22       DOPC     H2X      HAL2     0.900000E-01   1.00800           0
      3442 MEMB     22       DOPC     H2Y      HAL2     0.900000E-01   1.00800           0
      3443 MEMB     22       DOPC     C23      CTL2    -0.180000       12.0110           0
      3444 MEMB     22       DOPC     H3R      HAL2     0.900000E-01   1.00800           0
      3445 MEMB     22       DOPC     H3S      HAL2     0.900000E-01   1.00800           0
      3446 MEMB     22       DOPC     C24      CTL2    -0.180000       12.0110           0
      3447 MEMB     22       DOPC     H4R      HAL2     0.900000E-01   1.00800           0
      3448 MEMB     22       DOPC     H4S      HAL2     0.900000E-01   1.00800           0
      3449 MEMB     22       DOPC     C25      CTL2    -0.180000       12.0110           0
      3450 MEMB     22       DOPC     H5R      HAL2     0.900000E-01   1.00800           0
      3451 MEMB     22       DOPC     H5S      HAL2     0.900000E-01   1.00800           0
      3452 MEMB     22       DOPC     C26      CTL2    -0.180000       12.0110           0
      3453 MEMB     22       DOPC     H6R      HAL2     0.900000E-01   1.00800           0
      3454 MEMB     22       DOPC     H6S      HAL2     0.900000E-01   1.00800           0
      3455 MEMB     22       DOPC     C27      CTL2    -0.180000       12.0110           0
      3456 MEMB     22       DOPC     H7R      HAL2     0.900000E-01   1.00800           0
      3457 MEMB     22       DOPC     H7S      HAL2     0.900000E-01   1.00800           0
      3458 MEMB     22       DOPC     C28      CTL2    -0.180000       12.0110           0
      3459 MEMB     22       DOPC     H8R      HAL2     0.900000E-01   1.00800           0
      3460 MEMB     22       DOPC     H8S      HAL2     0.900000E-01   1.00800           0
      3461 MEMB     22       DOPC     C29      CEL1    -0.150000       12.0110           0
      3462 MEMB     22       DOPC     H9R      HEL1     0.150000       1.00800           0
      3463 MEMB     22       DOPC     C210     CEL1    -0.150000       12.0110           0
      3464 MEMB     22       DOPC     H10R     HEL1     0.150000       1.00800           0
      3465 MEMB     22       DOPC     C211     CTL2    -0.180000       12.0110           0
      3466 MEMB     22       DOPC     H11R     HAL2     0.900000E-01   1.00800           0
      3467 MEMB     22       DOPC     H11S     HAL2     0.900000E-01   1.00800           0
      3468 MEMB     22       DOPC     C212     CTL2    -0.180000       12.0110           0
      3469 MEMB     22       DOPC     H12R     HAL2     0.900000E-01   1.00800           0
      3470 MEMB     22       DOPC     H12S     HAL2     0.900000E-01   1.00800           0
      3471 MEMB     22       DOPC     C213     CTL2    -0.180000       12.0110           0
      3472 MEMB     22       DOPC     H13R     HAL2     0.900000E-01   1.00800           0
      3473 MEMB     22       DOPC     H13S     HAL2     0.900000E-01   1.00800           0
      3474 MEMB     22       DOPC     C214     CTL2    -0.180000       12.0110           0
      3475 MEMB     22       DOPC     H14R     HAL2     0.900000E-01   1.00800           0
      3476 MEMB     22       DOPC     H14S     HAL2     0.900000E-01   1.00800           0
      3477 MEMB     22       DOPC     C215     CTL2    -0.180000       12.0110           0
      3478 MEMB     22       DOPC     H15R     HAL2     0.900000E-01   1.00800           0
      3479 MEMB     22       DOPC     H15S     HAL2     0.900000E-01   1.00800           0
      3480 MEMB     22       DOPC     C216     CTL2    -0.180000       12.0110           0
      3481 MEMB     22       DOPC     H16R     HAL2     0.900000E-01   1.00800           0
      3482 MEMB     22       DOPC     H16S     HAL2     0.900000E-01   1.00800           0
      3483 MEMB     22       DOPC     C217     CTL2    -0.180000       12.0110           0
      3484 MEMB     22       DOPC     H17R     HAL2     0.900000E-01   1.00800           0
      3485 MEMB     22       DOPC     H17S     HAL2     0.900000E-01   1.00800           0
      3486 MEMB     22       DOPC     C218     CTL3    -0.270000       12.0110           0
      3487 MEMB     22       DOPC     H18R     HAL3     0.900000E-01   1.00800           0
      3488 MEMB     22       DOPC     H18S     HAL3     0.900000E-01   1.00800           0
      3489 MEMB     22       DOPC     H18T     HAL3     0.900000E-01   1.00800           0
      3490 MEMB     22       DOPC     C33      CTL2    -0.180000       12.0110           0
      3491 MEMB     22       DOPC     H3X      HAL2     0.900000E-01   1.00800           0
      3492 MEMB     22       DOPC     H3Y      HAL2     0.900000E-01   1.00800           0
      3493 MEMB     22       DOPC     C34      CTL2    -0.180000       12.0110           0
      3494 MEMB     22       DOPC     H4X      HAL2     0.900000E-01   1.00800           0
      3495 MEMB     22       DOPC     H4Y      HAL2     0.900000E-01   1.00800           0
      3496 MEMB     22       DOPC     C35      CTL2    -0.180000       12.0110           0
      3497 MEMB     22       DOPC     H5X      HAL2     0.900000E-01   1.00800           0
      3498 MEMB     22       DOPC     H5Y      HAL2     0.900000E-01   1.00800           0
      3499 MEMB     22       DOPC     C36      CTL2    -0.180000       12.0110           0
      3500 MEMB     22       DOPC     H6X      HAL2     0.900000E-01   1.00800           0
      3501 MEMB     22       DOPC     H6Y      HAL2     0.900000E-01   1.00800           0
      3502 MEMB     22       DOPC     C37      CTL2    -0.180000       12.0110           0
      3503 MEMB     22       DOPC     H7X      HAL2     0.900000E-01   1.00800           0
      3504 MEMB     22       DOPC     H7Y      HAL2     0.900000E-01   1.00800           0
      3505 MEMB     22       DOPC     C38      CTL2    -0.180000       12.0110           0
      3506 MEMB     22       DOPC     H8X      HAL2     0.900000E-01   1.00800           0
      3507 MEMB     22       DOPC     H8Y      HAL2     0.900000E-01   1.00800           0
      3508 MEMB     22       DOPC     C39      CEL1    -0.150000       12.0110           0
      3509 MEMB     22       DOPC     H9X      HEL1     0.150000       1.00800           0
      3510 MEMB     22       DOPC     C310     CEL1    -0.150000       12.0110           0
      3511 MEMB     22       DOPC     H10X     HEL1     0.150000       1.00800           0
      3512 MEMB     22       DOPC     C311     CTL2    -0.180000       12.0110           0
      3513 MEMB     22       DOPC     H11X     HAL2     0.900000E-01   1.00800           0
      3514 MEMB     22       DOPC     H11Y     HAL2     0.900000E-01   1.00800           0
      3515 MEMB     22       DOPC     C312     CTL2    -0.180000       12.0110           0
      3516 MEMB     22       DOPC     H12X     HAL2     0.900000E-01   1.00800           0
      3517 MEMB     22       DOPC     H12Y     HAL2     0.900000E-01   1.00800           0
      3518 MEMB     22       DOPC     C313     CTL2    -0.180000       12.0110           0
      3519 MEMB     22       DOPC     H13X     HAL2     0.900000E-01   1.00800           0
      3520 MEMB     22       DOPC     H13Y     HAL2     0.900000E-01   1.00800           0
      3521 MEMB     22       DOPC     C314     CTL2    -0.180000       12.0110           0
      3522 MEMB     22       DOPC     H14X     HAL2     0.900000E-01   1.00800           0
      3523 MEMB     22       DOPC     H14Y     HAL2     0.900000E-01   1.00800           0
      3524 MEMB     22       DOPC     C315     CTL2    -0.180000       12.0110           0
      3525 MEMB     22       DOPC     H15X     HAL2     0.900000E-01   1.00800           0
      3526 MEMB     22       DOPC     H15Y     HAL2     0.900000E-01   1.00800           0
      3527 MEMB     22       DOPC     C316     CTL2    -0.180000       12.0110           0
      3528 MEMB     22       DOPC     H16X     HAL2     0.900000E-01   1.00800           0
      3529 MEMB     22       DOPC     H16Y     HAL2     0.900000E-01   1.00800           0
      3530 MEMB     22       DOPC     C317     CTL2    -0.180000       12.0110           0
      3531 MEMB     22       DOPC     H17X     HAL2     0.900000E-01   1.00800           0
      3532 MEMB     22       DOPC     H17Y     HAL2     0.900000E-01   1.00800           0
      3533 MEMB     22       DOPC     C318     CTL3    -0.270000       12.0110           0
      3534 MEMB     22       DOPC     H18X     HAL3     0.900000E-01   1.00800           0
      3535 MEMB     22       DOPC     H18Y     HAL3     0.900000E-01   1.00800           0
      3536 MEMB     22       DOPC     H18Z     HAL3     0.900000E-01   1.00800           0
      3537 MEMB     23       DOPC     N        NTL     -0.600000       14.0070           0
      3538 MEMB     23       DOPC     C12      CTL2    -0.100000       12.0110           0
      3539 MEMB     23       DOPC     H12A     HL       0.250000       1.00800           0
      3540 MEMB     23       DOPC     H12B     HL       0.250000       1.00800           0
      3541 MEMB     23       DOPC     C13      CTL5    -0.350000       12.0110           0
      3542 MEMB     23       DOPC     H13A     HL       0.250000       1.00800           0
      3543 MEMB     23       DOPC     H13B     HL       0.250000       1.00800           0
      3544 MEMB     23       DOPC     H13C     HL       0.250000       1.00800           0
      3545 MEMB     23       DOPC     C14      CTL5    -0.350000       12.0110           0
      3546 MEMB     23       DOPC     H14A     HL       0.250000       1.00800           0
      3547 MEMB     23       DOPC     H14B     HL       0.250000       1.00800           0
      3548 MEMB     23       DOPC     H14C     HL       0.250000       1.00800           0
      3549 MEMB     23       DOPC     C15      CTL5    -0.350000       12.0110           0
      3550 MEMB     23       DOPC     H15A     HL       0.250000       1.00800           0
      3551 MEMB     23       DOPC     H15B     HL       0.250000       1.00800           0
      3552 MEMB     23       DOPC     H15C     HL       0.250000       1.00800           0
      3553 MEMB     23       DOPC     C11      CTL2    -0.800000E-01   12.0110           0
      3554 MEMB     23       DOPC     H11A     HAL2     0.900000E-01   1.00800           0
      3555 MEMB     23       DOPC     H11B     HAL2     0.900000E-01   1.00800           0
      3556 MEMB     23       DOPC     P        PL        1.50000       30.9740           0
      3557 MEMB     23       DOPC     O13      O2L     -0.780000       15.9994           0
      3558 MEMB     23       DOPC     O14      O2L     -0.780000       15.9994           0
      3559 MEMB     23       DOPC     O12      OSLP    -0.570000       15.9994           0
      3560 MEMB     23       DOPC     O11      OSLP    -0.570000       15.9994           0
      3561 MEMB     23       DOPC     C1       CTL2    -0.800000E-01   12.0110           0
      3562 MEMB     23       DOPC     HA       HAL2     0.900000E-01   1.00800           0
      3563 MEMB     23       DOPC     HB       HAL2     0.900000E-01   1.00800           0
      3564 MEMB     23       DOPC     C2       CTL1     0.170000       12.0110           0
      3565 MEMB     23       DOPC     HS       HAL1     0.900000E-01   1.00800           0
      3566 MEMB     23       DOPC     O21      OSL     -0.490000       15.9994           0
      3567 MEMB     23       DOPC     C21      CL       0.900000       12.0110           0
      3568 MEMB     23       DOPC     O22      OBL     -0.630000       15.9994           0
      3569 MEMB     23       DOPC     C22      CTL2    -0.220000       12.0110           0
      3570 MEMB     23       DOPC     H2R      HAL2     0.900000E-01   1.00800           0
      3571 MEMB     23       DOPC     H2S      HAL2     0.900000E-01   1.00800           0
      3572 MEMB     23       DOPC     C3       CTL2     0.800000E-01   12.0110           0
      3573 MEMB     23       DOPC     HX       HAL2     0.900000E-01   1.00800           0
      3574 MEMB     23       DOPC     HY       HAL2     0.900000E-01   1.00800           0
      3575 MEMB     23       DOPC     O31      OSL     -0.490000       15.9994           0
      3576 MEMB     23       DOPC     C31      CL       0.900000       12.0110           0
      3577 MEMB     23       DOPC     O32      OBL     -0.630000       15.9994           0
      3578 MEMB     23       DOPC     C32      CTL2    -0.220000       12.0110           0
      3579 MEMB     23       DOPC     H2X      HAL2     0.900000E-01   1.00800           0
      3580 MEMB     23       DOPC     H2Y      HAL2     0.900000E-01   1.00800           0
      3581 MEMB     23       DOPC     C23      CTL2    -0.180000       12.0110           0
      3582 MEMB     23       DOPC     H3R      HAL2     0.900000E-01   1.00800           0
      3583 MEMB     23       DOPC     H3S      HAL2     0.900000E-01   1.00800           0
      3584 MEMB     23       DOPC     C24      CTL2    -0.180000       12.0110           0
      3585 MEMB     23       DOPC     H4R      HAL2     0.900000E-01   1.00800           0
      3586 MEMB     23       DOPC     H4S      HAL2     0.900000E-01   1.00800           0
      3587 MEMB     23       DOPC     C25      CTL2    -0.180000       12.0110           0
      3588 MEMB     23       DOPC     H5R      HAL2     0.900000E-01   1.00800           0
      3589 MEMB     23       DOPC     H5S      HAL2     0.900000E-01   1.00800           0
      3590 MEMB     23       DOPC     C26      CTL2    -0.180000       12.0110           0
      3591 MEMB     23       DOPC     H6R      HAL2     0.900000E-01   1.00800           0
      3592 MEMB     23       DOPC     H6S      HAL2     0.900000E-01   1.00800           0
      3593 MEMB     23       DOPC     C27      CTL2    -0.180000       12.0110           0
      3594 MEMB     23       DOPC     H7R      HAL2     0.900000E-01   1.00800           0
      3595 MEMB     23       DOPC     H7S      HAL2     0.900000E-01   1.00800           0
      3596 MEMB     23       DOPC     C28      CTL2    -0.180000       12.0110           0
      3597 MEMB     23       DOPC     H8R      HAL2     0.900000E-01   1.00800           0
      3598 MEMB     23       DOPC     H8S      HAL2     0.900000E-01   1.00800           0
      3599 MEMB     23       DOPC     C29      CEL1    -0.150000       12.0110           0
      3600 MEMB     23       DOPC     H9R      HEL1     0.150000       1.00800           0
      3601 MEMB     23       DOPC     C210     CEL1    -0.150000       12.0110           0
      3602 MEMB     23       DOPC     H10R     HEL1     0.150000       1.00800           0
      3603 MEMB     23       DOPC     C211     CTL2    -0.180000       12.0110           0
      3604 MEMB     23       DOPC     H11R     HAL2     0.900000E-01   1.00800           0
      3605 MEMB     23       DOPC     H11S     HAL2     0.900000E-01   1.00800           0
      3606 MEMB     23       DOPC     C212     CTL2    -0.180000       12.0110           0
      3607 MEMB     23       DOPC     H12R     HAL2     0.900000E-01   1.00800           0
      3608 MEMB     23       DOPC     H12S     HAL2     0.900000E-01   1.00800           0
      3609 MEMB     23       DOPC     C213     CTL2    -0.180000       12.0110           0
      3610 MEMB     23       DOPC     H13R     HAL2     0.900000E-01   1.00800           0
      3611 MEMB     23       DOPC     H13S     HAL2     0.900000E-01   1.00800           0
      3612 MEMB     23       DOPC     C214     CTL2    -0.180000       12.0110           0
      3613 MEMB     23       DOPC     H14R     HAL2     0.900000E-01   1.00800           0
      3614 MEMB     23       DOPC     H14S     HAL2     0.900000E-01   1.00800           0
      3615 MEMB     23       DOPC     C215     CTL2    -0.180000       12.0110           0
      3616 MEMB     23       DOPC     H15R     HAL2     0.900000E-01   1.00800           0
      3617 MEMB     23       DOPC     H15S     HAL2     0.900000E-01   1.00800           0
      3618 MEMB     23       DOPC     C216     CTL2    -0.180000       12.0110           0
      3619 MEMB     23       DOPC     H16R     HAL2     0.900000E-01   1.00800           0
      3620 MEMB     23       DOPC     H16S     HAL2     0.900000E-01   1.00800           0
      3621 MEMB     23       DOPC     C217     CTL2    -0.180000       12.0110           0
      3622 MEMB     23       DOPC     H17R     HAL2     0.900000E-01   1.00800           0
      3623 MEMB     23       DOPC     H17S     HAL2     0.900000E-01   1.00800           0
      3624 MEMB     23       DOPC     C218     CTL3    -0.270000       12.0110           0
      3625 MEMB     23       DOPC     H18R     HAL3     0.900000E-01   1.00800           0
      3626 MEMB     23       DOPC     H18S     HAL3     0.900000E-01   1.00800           0
      3627 MEMB     23       DOPC     H18T     HAL3     0.900000E-01   1.00800           0
      3628 MEMB     23       DOPC     C33      CTL2    -0.180000       12.0110           0
      3629 MEMB     23       DOPC     H3X      HAL2     0.900000E-01   1.00800           0
      3630 MEMB     23       DOPC     H3Y      HAL2     0.900000E-01   1.00800           0
      3631 MEMB     23       DOPC     C34      CTL2    -0.180000       12.0110           0
      3632 MEMB     23       DOPC     H4X      HAL2     0.900000E-01   1.00800           0
      3633 MEMB     23       DOPC     H4Y      HAL2     0.900000E-01   1.00800           0
      3634 MEMB     23       DOPC     C35      CTL2    -0.180000       12.0110           0
      3635 MEMB     23       DOPC     H5X      HAL2     0.900000E-01   1.00800           0
      3636 MEMB     23       DOPC     H5Y      HAL2     0.900000E-01   1.00800           0
      3637 MEMB     23       DOPC     C36      CTL2    -0.180000       12.0110           0
      3638 MEMB     23       DOPC     H6X      HAL2     0.900000E-01   1.00800           0
      3639 MEMB     23       DOPC     H6Y      HAL2     0.900000E-01   1.00800           0
      3640 MEMB     23       DOPC     C37      CTL2    -0.180000       12.0110           0
      3641 MEMB     23       DOPC     H7X      HAL2     0.900000E-01   1.00800           0
      3642 MEMB     23       DOPC     H7Y      HAL2     0.900000E-01   1.00800           0
      3643 MEMB     23       DOPC     C38      CTL2    -0.180000       12.0110           0
      3644 MEMB     23       DOPC     H8X      HAL2     0.900000E-01   1.00800           0
      3645 MEMB     23       DOPC     H8Y      HAL2     0.900000E-01   1.00800           0
      3646 MEMB     23       DOPC     C39      CEL1    -0.150000       12.0110           0
      3647 MEMB     23       DOPC     H9X      HEL1     0.150000       1.00800           0
      3648 MEMB     23       DOPC     C310     CEL1    -0.150000       12.0110           0
      3649 MEMB     23       DOPC     H10X     HEL1     0.150000       1.00800           0
      3650 MEMB     23       DOPC     C311     CTL2    -0.180000       12.0110           0
      3651 MEMB     23       DOPC     H11X     HAL2     0.900000E-01   1.00800           0
      3652 MEMB     23       DOPC     H11Y     HAL2     0.900000E-01   1.00800           0
      3653 MEMB     23       DOPC     C312     CTL2    -0.180000       12.0110           0
      3654 MEMB     23       DOPC     H12X     HAL2     0.900000E-01   1.00800           0
      3655 MEMB     23       DOPC     H12Y     HAL2     0.900000E-01   1.00800           0
      3656 MEMB     23       DOPC     C313     CTL2    -0.180000       12.0110           0
      3657 MEMB     23       DOPC     H13X     HAL2     0.900000E-01   1.00800           0
      3658 MEMB     23       DOPC     H13Y     HAL2     0.900000E-01   1.00800           0
      3659 MEMB     23       DOPC     C314     CTL2    -0.180000       12.0110           0
      3660 MEMB     23       DOPC     H14X     HAL2     0.900000E-01   1.00800           0
      3661 MEMB     23       DOPC     H14Y     HAL2     0.900000E-01   1.00800           0
      3662 MEMB     23       DOPC     C315     CTL2    -0.180000       12.0110           0
      3663 MEMB     23       DOPC     H15X     HAL2     0.900000E-01   1.00800           0
      3664 MEMB     23       DOPC     H15Y     HAL2     0.900000E-01   1.00800           0
      3665 MEMB     23       DOPC     C316     CTL2    -0.180000       12.0110           0
      3666 MEMB     23       DOPC     H16X     HAL2     0.900000E-01   1.00800           0
      3667 MEMB     23       DOPC     H16Y     HAL2     0.900000E-01   1.00800           0
      3668 MEMB     23       DOPC     C317     CTL2    -0.180000       12.0110           0
      3669 MEMB     23       DOPC     H17X     HAL2     0.900000E-01   1.00800           0
      3670 MEMB     23       DOPC     H17Y     HAL2     0.900000E-01   1.00800           0
      3671 MEMB     23       DOPC     C318     CTL3    -0.270000       12.0110           0
      3672 MEMB     23       DOPC     H18X     HAL3     0.900000E-01   1.00800           0
      3673 MEMB     23       DOPC     H18Y     HAL3     0.900000E-01   1.00800           0
      3674 MEMB     23       DOPC     H18Z     HAL3     0.900000E-01   1.00800           0
      3675 MEMB     24       DOPC     N        NTL     -0.600000       14.0070           0
      3676 MEMB     24       DOPC     C12      CTL2    -0.100000       12.0110           0
      3677 MEMB     24       DOPC     H12A     HL       0.250000       1.00800           0
      3678 MEMB     24       DOPC     H12B     HL       0.250000       1.00800           0
      3679 MEMB     24       DOPC     C13      CTL5    -0.350000       12.0110           0
      3680 MEMB     24       DOPC     H13A     HL       0.250000       1.00800           0
      3681 MEMB     24       DOPC     H13B     HL       0.250000       1.00800           0
      3682 MEMB     24       DOPC     H13C     HL       0.250000       1.00800           0
      3683 MEMB     24       DOPC     C14      CTL5    -0.350000       12.0110           0
      3684 MEMB     24       DOPC     H14A     HL       0.250000       1.00800           0
      3685 MEMB     24       DOPC     H14B     HL       0.250000       1.00800           0
      3686 MEMB     24       DOPC     H14C     HL       0.250000       1.00800           0
      3687 MEMB     24       DOPC     C15      CTL5    -0.350000       12.0110           0
      3688 MEMB     24       DOPC     H15A     HL       0.250000       1.00800           0
      3689 MEMB     24       DOPC     H15B     HL       0.250000       1.00800           0
      3690 MEMB     24       DOPC     H15C     HL       0.250000       1.00800           0
      3691 MEMB     24       DOPC     C11      CTL2    -0.800000E-01   12.0110           0
      3692 MEMB     24       DOPC     H11A     HAL2     0.900000E-01   1.00800           0
      3693 MEMB     24       DOPC     H11B     HAL2     0.900000E-01   1.00800           0
      3694 MEMB     24       DOPC     P        PL        1.50000       30.9740           0
      3695 MEMB     24       DOPC     O13      O2L     -0.780000       15.9994           0
      3696 MEMB     24       DOPC     O14      O2L     -0.780000       15.9994           0
      3697 MEMB     24       DOPC     O12      OSLP    -0.570000       15.9994           0
      3698 MEMB     24       DOPC     O11      OSLP    -0.570000       15.9994           0
      3699 MEMB     24       DOPC     C1       CTL2    -0.800000E-01   12.0110           0
      3700 MEMB     24       DOPC     HA       HAL2     0.900000E-01   1.00800           0
      3701 MEMB     24       DOPC     HB       HAL2     0.900000E-01   1.00800           0
      3702 MEMB     24       DOPC     C2       CTL1     0.170000       12.0110           0
      3703 MEMB     24       DOPC     HS       HAL1     0.900000E-01   1.00800           0
      3704 MEMB     24       DOPC     O21      OSL     -0.490000       15.9994           0
      3705 MEMB     24       DOPC     C21      CL       0.900000       12.0110           0
      3706 MEMB     24       DOPC     O22      OBL     -0.630000       15.9994           0
      3707 MEMB     24       DOPC     C22      CTL2    -0.220000       12.0110           0
      3708 MEMB     24       DOPC     H2R      HAL2     0.900000E-01   1.00800           0
      3709 MEMB     24       DOPC     H2S      HAL2     0.900000E-01   1.00800           0
      3710 MEMB     24       DOPC     C3       CTL2     0.800000E-01   12.0110           0
      3711 MEMB     24       DOPC     HX       HAL2     0.900000E-01   1.00800           0
      3712 MEMB     24       DOPC     HY       HAL2     0.900000E-01   1.00800           0
      3713 MEMB     24       DOPC     O31      OSL     -0.490000       15.9994           0
      3714 MEMB     24       DOPC     C31      CL       0.900000       12.0110           0
      3715 MEMB     24       DOPC     O32      OBL     -0.630000       15.9994           0
      3716 MEMB     24       DOPC     C32      CTL2    -0.220000       12.0110           0
      3717 MEMB     24       DOPC     H2X      HAL2     0.900000E-01   1.00800           0
      3718 MEMB     24       DOPC     H2Y      HAL2     0.900000E-01   1.00800           0
      3719 MEMB     24       DOPC     C23      CTL2    -0.180000       12.0110           0
      3720 MEMB     24       DOPC     H3R      HAL2     0.900000E-01   1.00800           0
      3721 MEMB     24       DOPC     H3S      HAL2     0.900000E-01   1.00800           0
      3722 MEMB     24       DOPC     C24      CTL2    -0.180000       12.0110           0
      3723 MEMB     24       DOPC     H4R      HAL2     0.900000E-01   1.00800           0
      3724 MEMB     24       DOPC     H4S      HAL2     0.900000E-01   1.00800           0
      3725 MEMB     24       DOPC     C25      CTL2    -0.180000       12.0110           0
      3726 MEMB     24       DOPC     H5R      HAL2     0.900000E-01   1.00800           0
      3727 MEMB     24       DOPC     H5S      HAL2     0.900000E-01   1.00800           0
      3728 MEMB     24       DOPC     C26      CTL2    -0.180000       12.0110           0
      3729 MEMB     24       DOPC     H6R      HAL2     0.900000E-01   1.00800           0
      3730 MEMB     24       DOPC     H6S      HAL2     0.900000E-01   1.00800           0
      3731 MEMB     24       DOPC     C27      CTL2    -0.180000       12.0110           0
      3732 MEMB     24       DOPC     H7R      HAL2     0.900000E-01   1.00800           0
      3733 MEMB     24       DOPC     H7S      HAL2     0.900000E-01   1.00800           0
      3734 MEMB     24       DOPC     C28      CTL2    -0.180000       12.0110           0
      3735 MEMB     24       DOPC     H8R      HAL2     0.900000E-01   1.00800           0
      3736 MEMB     24       DOPC     H8S      HAL2     0.900000E-01   1.00800           0
      3737 MEMB     24       DOPC     C29      CEL1    -0.150000       12.0110           0
      3738 MEMB     24       DOPC     H9R      HEL1     0.150000       1.00800           0
      3739 MEMB     24       DOPC     C210     CEL1    -0.150000       12.0110           0
      3740 MEMB     24       DOPC     H10R     HEL1     0.150000       1.00800           0
      3741 MEMB     24       DOPC     C211     CTL2    -0.180000       12.0110           0
      3742 MEMB     24       DOPC     H11R     HAL2     0.900000E-01   1.00800           0
      3743 MEMB     24       DOPC     H11S     HAL2     0.900000E-01   1.00800           0
      3744 MEMB     24       DOPC     C212     CTL2    -0.180000       12.0110           0
      3745 MEMB     24       DOPC     H12R     HAL2     0.900000E-01   1.00800           0
      3746 MEMB     24       DOPC     H12S     HAL2     0.900000E-01   1.00800           0
      3747 MEMB     24       DOPC     C213     CTL2    -0.180000       12.0110           0
      3748 MEMB     24       DOPC     H13R     HAL2     0.900000E-01   1.00800           0
      3749 MEMB     24       DOPC     H13S     HAL2     0.900000E-01   1.00800           0
      3750 MEMB     24       DOPC     C214     CTL2    -0.180000       12.0110           0
      3751 MEMB     24       DOPC     H14R     HAL2     0.900000E-01   1.00800           0
      3752 MEMB     24       DOPC     H14S     HAL2     0.900000E-01   1.00800           0
      3753 MEMB     24       DOPC     C215     CTL2    -0.180000       12.0110           0
      3754 MEMB     24       DOPC     H15R     HAL2     0.900000E-01   1.00800           0
      3755 MEMB     24       DOPC     H15S     HAL2     0.900000E-01   1.00800           0
      3756 MEMB     24       DOPC     C216     CTL2    -0.180000       12.0110           0
      3757 MEMB     24       DOPC     H16R     HAL2     0.900000E-01   1.00800           0
      3758 MEMB     24       DOPC     H16S     HAL2     0.900000E-01   1.00800           0
      3759 MEMB     24       DOPC     C217     CTL2    -0.180000       12.0110           0
      3760 MEMB     24       DOPC     H17R     HAL2     0.900000E-01   1.00800           0
      3761 MEMB     24       DOPC     H17S     HAL2     0.900000E-01   1.00800           0
      3762 MEMB     24       DOPC     C218     CTL3    -0.270000       12.0110           0
      3763 MEMB     24       DOPC     H18R     HAL3     0.900000E-01   1.00800           0
      3764 MEMB     24       DOPC     H18S     HAL3     0.900000E-01   1.00800           0
      3765 MEMB     24       DOPC     H18T     HAL3     0.900000E-01   1.00800           0
      3766 MEMB     24       DOPC     C33      CTL2    -0.180000       12.0110           0
      3767 MEMB     24       DOPC     H3X      HAL2     0.900000E-01   1.00800           0
      3768 MEMB     24       DOPC     H3Y      HAL2     0.900000E-01   1.00800           0
      3769 MEMB     24       DOPC     C34      CTL2    -0.180000       12.0110           0
      3770 MEMB     24       DOPC     H4X      HAL2     0.900000E-01   1.00800           0
      3771 MEMB     24       DOPC     H4Y      HAL2     0.900000E-01   1.00800           0
      3772 MEMB     24       DOPC     C35      CTL2    -0.180000       12.0110           0
      3773 MEMB     24       DOPC     H5X      HAL2     0.900000E-01   1.00800           0
      3774 MEMB     24       DOPC     H5Y      HAL2     0.900000E-01   1.00800           0
      3775 MEMB     24       DOPC     C36      CTL2    -0.180000       12.0110           0
      3776 MEMB     24       DOPC     H6X      HAL2     0.900000E-01   1.00800           0
      3777 MEMB     24       DOPC     H6Y      HAL2     0.900000E-01   1.00800           0
      3778 MEMB     24       DOPC     C37      CTL2    -0.180000       12.0110           0
      3779 MEMB     24       DOPC     H7X      HAL2     0.900000E-01   1.00800           0
      3780 MEMB     24       DOPC     H7Y      HAL2     0.900000E-01   1.00800           0
      3781 MEMB     24       DOPC     C38      CTL2    -0.180000       12.0110           0
      3782 MEMB     24       DOPC     H8X      HAL2     0.900000E-01   1.00800           0
      3783 MEMB     24       DOPC     H8Y      HAL2     0.900000E-01   1.00800           0
      3784 MEMB     24       DOPC     C39      CEL1    -0.150000       12.0110           0
      3785 MEMB     24       DOPC     H9X      HEL1     0.150000       1.00800           0
      3786 MEMB     24       DOPC     C310     CEL1    -0.150000       12.0110           0
      3787 MEMB     24       DOPC     H10X     HEL1     0.150000       1.00800           0
      3788 MEMB     24       DOPC     C311     CTL2    -0.180000       12.0110           0
      3789 MEMB     24       DOPC     H11X     HAL2     0.900000E-01   1.00800           0
      3790 MEMB     24       DOPC     H11Y     HAL2     0.900000E-01   1.00800           0
      3791 MEMB     24       DOPC     C312     CTL2    -0.180000       12.0110           0
      3792 MEMB     24       DOPC     H12X     HAL2     0.900000E-01   1.00800           0
      3793 MEMB     24       DOPC     H12Y     HAL2     0.900000E-01   1.00800           0
      3794 MEMB     24       DOPC     C313     CTL2    -0.180000       12.0110           0
      3795 MEMB     24       DOPC     H13X     HAL2     0.900000E-01   1.00800           0
      3796 MEMB     24       DOPC     H13Y     HAL2     0.900000E-01   1.00800           0
      3797 MEMB     24       DOPC     C314     CTL2    -0.180000       12.0110           0
      3798 MEMB     24       DOPC     H14X     HAL2     0.900000E-01   1.00800           0
      3799 MEMB     24       DOPC     H14Y     HAL2     0.900000E-01   1.00800           0
      3800 MEMB     24       DOPC     C315     CTL2    -0.180000       12.0110           0
      3801 MEMB     24       DOPC     H15X     HAL2     0.900000E-01   1.00800           0
      3802 MEMB     24       DOPC     H15Y     HAL2     0.900000E-01   1.00800           0
      3803 MEMB     24       DOPC     C316     CTL2    -0.180000       12.0110           0
      3804 MEMB     24       DOPC     H16X     HAL2     0.900000E-01   1.00800           0
      3805 MEMB     24       DOPC     H16Y     HAL2     0.900000E-01   1.00800           0
      3806 MEMB     24       DOPC     C317     CTL2    -0.180000       12.0110           0
      3807 MEMB     24       DOPC     H17X     HAL2     0.900000E-01   1.00800           0
      3808 MEMB     24       DOPC     H17Y     HAL2     0.900000E-01   1.00800           0
      3809 MEMB     24       DOPC     C318     CTL3    -0.270000       12.0110           0
      3810 MEMB     24       DOPC     H18X     HAL3     0.900000E-01   1.00800           0
      3811 MEMB     24       DOPC     H18Y     HAL3     0.900000E-01   1.00800           0
      3812 MEMB     24       DOPC     H18Z     HAL3     0.900000E-01   1.00800           0
      3813 MEMB     25       DOPC     N        NTL     -0.600000       14.0070           0
      3814 MEMB     25       DOPC     C12      CTL2    -0.100000       12.0110           0
      3815 MEMB     25       DOPC     H12A     HL       0.250000       1.00800           0
      3816 MEMB     25       DOPC     H12B     HL       0.250000       1.00800           0
      3817 MEMB     25       DOPC     C13      CTL5    -0.350000       12.0110           0
      3818 MEMB     25       DOPC     H13A     HL       0.250000       1.00800           0
      3819 MEMB     25       DOPC     H13B     HL       0.250000       1.00800           0
      3820 MEMB     25       DOPC     H13C     HL       0.250000       1.00800           0
      3821 MEMB     25       DOPC     C14      CTL5    -0.350000       12.0110           0
      3822 MEMB     25       DOPC     H14A     HL       0.250000       1.00800           0
      3823 MEMB     25       DOPC     H14B     HL       0.250000       1.00800           0
      3824 MEMB     25       DOPC     H14C     HL       0.250000       1.00800           0
      3825 MEMB     25       DOPC     C15      CTL5    -0.350000       12.0110           0
      3826 MEMB     25       DOPC     H15A     HL       0.250000       1.00800           0
      3827 MEMB     25       DOPC     H15B     HL       0.250000       1.00800           0
      3828 MEMB     25       DOPC     H15C     HL       0.250000       1.00800           0
      3829 MEMB     25       DOPC     C11      CTL2    -0.800000E-01   12.0110           0
      3830 MEMB     25       DOPC     H11A     HAL2     0.900000E-01   1.00800           0
      3831 MEMB     25       DOPC     H11B     HAL2     0.900000E-01   1.00800           0
      3832 MEMB     25       DOPC     P        PL        1.50000       30.9740           0
      3833 MEMB     25       DOPC     O13      O2L     -0.780000       15.9994           0
      3834 MEMB     25       DOPC     O14      O2L     -0.780000       15.9994           0
      3835 MEMB     25       DOPC     O12      OSLP    -0.570000       15.9994           0
      3836 MEMB     25       DOPC     O11      OSLP    -0.570000       15.9994           0
      3837 MEMB     25       DOPC     C1       CTL2    -0.800000E-01   12.0110           0
      3838 MEMB     25       DOPC     HA       HAL2     0.900000E-01   1.00800           0
      3839 MEMB     25       DOPC     HB       HAL2     0.900000E-01   1.00800           0
      3840 MEMB     25       DOPC     C2       CTL1     0.170000       12.0110           0
      3841 MEMB     25       DOPC     HS       HAL1     0.900000E-01   1.00800           0
      3842 MEMB     25       DOPC     O21      OSL     -0.490000       15.9994           0
      3843 MEMB     25       DOPC     C21      CL       0.900000       12.0110           0
      3844 MEMB     25       DOPC     O22      OBL     -0.630000       15.9994           0
      3845 MEMB     25       DOPC     C22      CTL2    -0.220000       12.0110           0
      3846 MEMB     25       DOPC     H2R      HAL2     0.900000E-01   1.00800           0
      3847 MEMB     25       DOPC     H2S      HAL2     0.900000E-01   1.00800           0
      3848 MEMB     25       DOPC     C3       CTL2     0.800000E-01   12.0110           0
      3849 MEMB     25       DOPC     HX       HAL2     0.900000E-01   1.00800           0
      3850 MEMB     25       DOPC     HY       HAL2     0.900000E-01   1.00800           0
      3851 MEMB     25       DOPC     O31      OSL     -0.490000       15.9994           0
      3852 MEMB     25       DOPC     C31      CL       0.900000       12.0110           0
      3853 MEMB     25       DOPC     O32      OBL     -0.630000       15.9994           0
      3854 MEMB     25       DOPC     C32      CTL2    -0.220000       12.0110           0
      3855 MEMB     25       DOPC     H2X      HAL2     0.900000E-01   1.00800           0
      3856 MEMB     25       DOPC     H2Y      HAL2     0.900000E-01   1.00800           0
      3857 MEMB     25       DOPC     C23      CTL2    -0.180000       12.0110           0
      3858 MEMB     25       DOPC     H3R      HAL2     0.900000E-01   1.00800           0
      3859 MEMB     25       DOPC     H3S      HAL2     0.900000E-01   1.00800           0
      3860 MEMB     25       DOPC     C24      CTL2    -0.180000       12.0110           0
      3861 MEMB     25       DOPC     H4R      HAL2     0.900000E-01   1.00800           0
      3862 MEMB     25       DOPC     H4S      HAL2     0.900000E-01   1.00800           0
      3863 MEMB     25       DOPC     C25      CTL2    -0.180000       12.0110           0
      3864 MEMB     25       DOPC     H5R      HAL2     0.900000E-01   1.00800           0
      3865 MEMB     25       DOPC     H5S      HAL2     0.900000E-01   1.00800           0
      3866 MEMB     25       DOPC     C26      CTL2    -0.180000       12.0110           0
      3867 MEMB     25       DOPC     H6R      HAL2     0.900000E-01   1.00800           0
      3868 MEMB     25       DOPC     H6S      HAL2     0.900000E-01   1.00800           0
      3869 MEMB     25       DOPC     C27      CTL2    -0.180000       12.0110           0
      3870 MEMB     25       DOPC     H7R      HAL2     0.900000E-01   1.00800           0
      3871 MEMB     25       DOPC     H7S      HAL2     0.900000E-01   1.00800           0
      3872 MEMB     25       DOPC     C28      CTL2    -0.180000       12.0110           0
      3873 MEMB     25       DOPC     H8R      HAL2     0.900000E-01   1.00800           0
      3874 MEMB     25       DOPC     H8S      HAL2     0.900000E-01   1.00800           0
      3875 MEMB     25       DOPC     C29      CEL1    -0.150000       12.0110           0
      3876 MEMB     25       DOPC     H9R      HEL1     0.150000       1.00800           0
      3877 MEMB     25       DOPC     C210     CEL1    -0.150000       12.0110           0
      3878 MEMB     25       DOPC     H10R     HEL1     0.150000       1.00800           0
      3879 MEMB     25       DOPC     C211     CTL2    -0.180000       12.0110           0
      3880 MEMB     25       DOPC     H11R     HAL2     0.900000E-01   1.00800           0
      3881 MEMB     25       DOPC     H11S     HAL2     0.900000E-01   1.00800           0
      3882 MEMB     25       DOPC     C212     CTL2    -0.180000       12.0110           0
      3883 MEMB     25       DOPC     H12R     HAL2     0.900000E-01   1.00800           0
      3884 MEMB     25       DOPC     H12S     HAL2     0.900000E-01   1.00800           0
      3885 MEMB     25       DOPC     C213     CTL2    -0.180000       12.0110           0
      3886 MEMB     25       DOPC     H13R     HAL2     0.900000E-01   1.00800           0
      3887 MEMB     25       DOPC     H13S     HAL2     0.900000E-01   1.00800           0
      3888 MEMB     25       DOPC     C214     CTL2    -0.180000       12.0110           0
      3889 MEMB     25       DOPC     H14R     HAL2     0.900000E-01   1.00800           0
      3890 MEMB     25       DOPC     H14S     HAL2     0.900000E-01   1.00800           0
      3891 MEMB     25       DOPC     C215     CTL2    -0.180000       12.0110           0
      3892 MEMB     25       DOPC     H15R     HAL2     0.900000E-01   1.00800           0
      3893 MEMB     25       DOPC     H15S     HAL2     0.900000E-01   1.00800           0
      3894 MEMB     25       DOPC     C216     CTL2    -0.180000       12.0110           0
      3895 MEMB     25       DOPC     H16R     HAL2     0.900000E-01   1.00800           0
      3896 MEMB     25       DOPC     H16S     HAL2     0.900000E-01   1.00800           0
      3897 MEMB     25       DOPC     C217     CTL2    -0.180000       12.0110           0
      3898 MEMB     25       DOPC     H17R     HAL2     0.900000E-01   1.00800           0
      3899 MEMB     25       DOPC     H17S     HAL2     0.900000E-01   1.00800           0
      3900 MEMB     25       DOPC     C218     CTL3    -0.270000       12.0110           0
      3901 MEMB     25       DOPC     H18R     HAL3     0.900000E-01   1.00800           0
      3902 MEMB     25       DOPC     H18S     HAL3     0.900000E-01   1.00800           0
      3903 MEMB     25       DOPC     H18T     HAL3     0.900000E-01   1.00800           0
      3904 MEMB     25       DOPC     C33      CTL2    -0.180000       12.0110           0
      3905 MEMB     25       DOPC     H3X      HAL2     0.900000E-01   1.00800           0
      3906 MEMB     25       DOPC     H3Y      HAL2     0.900000E-01   1.00800           0
      3907 MEMB     25       DOPC     C34      CTL2    -0.180000       12.0110           0
      3908 MEMB     25       DOPC     H4X      HAL2     0.900000E-01   1.00800           0
      3909 MEMB     25       DOPC     H4Y      HAL2     0.900000E-01   1.00800           0
      3910 MEMB     25       DOPC     C35      CTL2    -0.180000       12.0110           0
      3911 MEMB     25       DOPC     H5X      HAL2     0.900000E-01   1.00800           0
      3912 MEMB     25       DOPC     H5Y      HAL2     0.900000E-01   1.00800           0
      3913 MEMB     25       DOPC     C36      CTL2    -0.180000       12.0110           0
      3914 MEMB     25       DOPC     H6X      HAL2     0.900000E-01   1.00800           0
      3915 MEMB     25       DOPC     H6Y      HAL2     0.900000E-01   1.00800           0
      3916 MEMB     25       DOPC     C37      CTL2    -0.180000       12.0110           0
      3917 MEMB     25       DOPC     H7X      HAL2     0.900000E-01   1.00800           0
      3918 MEMB     25       DOPC     H7Y      HAL2     0.900000E-01   1.00800           0
      3919 MEMB     25       DOPC     C38      CTL2    -0.180000       12.0110           0
      3920 MEMB     25       DOPC     H8X      HAL2     0.900000E-01   1.00800           0
      3921 MEMB     25       DOPC     H8Y      HAL2     0.900000E-01   1.00800           0
      3922 MEMB     25       DOPC     C39      CEL1    -0.150000       12.0110           0
      3923 MEMB     25       DOPC     H9X      HEL1     0.150000       1.00800           0
      3924 MEMB     25       DOPC     C310     CEL1    -0.150000       12.0110           0
      3925 MEMB     25       DOPC     H10X     HEL1     0.150000       1.00800           0
      3926 MEMB     25       DOPC     C311     CTL2    -0.180000       12.0110           0
      3927 MEMB     25       DOPC     H11X     HAL2     0.900000E-01   1.00800           0
      3928 MEMB     25       DOPC     H11Y     HAL2     0.900000E-01   1.00800           0
      3929 MEMB     25       DOPC     C312     CTL2    -0.180000       12.0110           0
      3930 MEMB     25       DOPC     H12X     HAL2     0.900000E-01   1.00800           0
      3931 MEMB     25       DOPC     H12Y     HAL2     0.900000E-01   1.00800           0
      3932 MEMB     25       DOPC     C313     CTL2    -0.180000       12.0110           0
      3933 MEMB     25       DOPC     H13X     HAL2     0.900000E-01   1.00800           0
      3934 MEMB     25       DOPC     H13Y     HAL2     0.900000E-01   1.00800           0
      3935 MEMB     25       DOPC     C314     CTL2    -0.180000       12.0110           0
      3936 MEMB     25       DOPC     H14X     HAL2     0.900000E-01   1.00800           0
      3937 MEMB     25       DOPC     H14Y     HAL2     0.900000E-01   1.00800           0
      3938 MEMB     25       DOPC     C315     CTL2    -0.180000       12.0110           0
      3939 MEMB     25       DOPC     H15X     HAL2     0.900000E-01   1.00800           0
      3940 MEMB     25       DOPC     H15Y     HAL2     0.900000E-01   1.00800           0
      3941 MEMB     25       DOPC     C316     CTL2    -0.180000       12.0110           0
      3942 MEMB     25       DOPC     H16X     HAL2     0.900000E-01   1.00800           0
      3943 MEMB     25       DOPC     H16Y     HAL2     0.900000E-01   1.00800           0
      3944 MEMB     25       DOPC     C317     CTL2    -0.180000       12.0110           0
      3945 MEMB     25       DOPC     H17X     HAL2     0.900000E-01   1.00800           0
      3946 MEMB     25       DOPC     H17Y     HAL2     0.900000E-01   1.00800           0
      3947 MEMB     25       DOPC     C318     CTL3    -0.270000       12.0110           0
      3948 MEMB     25       DOPC     H18X     HAL3     0.900000E-01   1.00800           0
      3949 MEMB     25       DOPC     H18Y     HAL3     0.900000E-01   1.00800           0
      3950 MEMB     25       DOPC     H18Z     HAL3     0.900000E-01   1.00800           0
      3951 MEMB     26       DOPC     N        NTL     -0.600000       14.0070           0
      3952 MEMB     26       DOPC     C12      CTL2    -0.100000       12.0110           0
      3953 MEMB     26       DOPC     H12A     HL       0.250000       1.00800           0
      3954 MEMB     26       DOPC     H12B     HL       0.250000       1.00800           0
      3955 MEMB     26       DOPC     C13      CTL5    -0.350000       12.0110           0
      3956 MEMB     26       DOPC     H13A     HL       0.250000       1.00800           0
      3957 MEMB     26       DOPC     H13B     HL       0.250000       1.00800           0
      3958 MEMB     26       DOPC     H13C     HL       0.250000       1.00800           0
      3959 MEMB     26       DOPC     C14      CTL5    -0.350000       12.0110           0
      3960 MEMB     26       DOPC     H14A     HL       0.250000       1.00800           0
      3961 MEMB     26       DOPC     H14B     HL       0.250000       1.00800           0
      3962 MEMB     26       DOPC     H14C     HL       0.250000       1.00800           0
      3963 MEMB     26       DOPC     C15      CTL5    -0.350000       12.0110           0
      3964 MEMB     26       DOPC     H15A     HL       0.250000       1.00800           0
      3965 MEMB     26       DOPC     H15B     HL       0.250000       1.00800           0
      3966 MEMB     26       DOPC     H15C     HL       0.250000       1.00800           0
      3967 MEMB     26       DOPC     C11      CTL2    -0.800000E-01   12.0110           0
      3968 MEMB     26       DOPC     H11A     HAL2     0.900000E-01   1.00800           0
      3969 MEMB     26       DOPC     H11B     HAL2     0.900000E-01   1.00800           0
      3970 MEMB     26       DOPC     P        PL        1.50000       30.9740           0
      3971 MEMB     26       DOPC     O13      O2L     -0.780000       15.9994           0
      3972 MEMB     26       DOPC     O14      O2L     -0.780000       15.9994           0
      3973 MEMB     26       DOPC     O12      OSLP    -0.570000       15.9994           0
      3974 MEMB     26       DOPC     O11      OSLP    -0.570000       15.9994           0
      3975 MEMB     26       DOPC     C1       CTL2    -0.800000E-01   12.0110           0
      3976 MEMB     26       DOPC     HA       HAL2     0.900000E-01   1.00800           0
      3977 MEMB     26       DOPC     HB       HAL2     0.900000E-01   1.00800           0
      3978 MEMB     26       DOPC     C2       CTL1     0.170000       12.0110           0
      3979 MEMB     26       DOPC     HS       HAL1     0.900000E-01   1.00800           0
      3980 MEMB     26       DOPC     O21      OSL     -0.490000       15.9994           0
      3981 MEMB     26       DOPC     C21      CL       0.900000       12.0110           0
      3982 MEMB     26       DOPC     O22      OBL     -0.630000       15.9994           0
      3983 MEMB     26       DOPC     C22      CTL2    -0.220000       12.0110           0
      3984 MEMB     26       DOPC     H2R      HAL2     0.900000E-01   1.00800           0
      3985 MEMB     26       DOPC     H2S      HAL2     0.900000E-01   1.00800           0
      3986 MEMB     26       DOPC     C3       CTL2     0.800000E-01   12.0110           0
      3987 MEMB     26       DOPC     HX       HAL2     0.900000E-01   1.00800           0
      3988 MEMB     26       DOPC     HY       HAL2     0.900000E-01   1.00800           0
      3989 MEMB     26       DOPC     O31      OSL     -0.490000       15.9994           0
      3990 MEMB     26       DOPC     C31      CL       0.900000       12.0110           0
      3991 MEMB     26       DOPC     O32      OBL     -0.630000       15.9994           0
      3992 MEMB     26       DOPC     C32      CTL2    -0.220000       12.0110           0
      3993 MEMB     26       DOPC     H2X      HAL2     0.900000E-01   1.00800           0
      3994 MEMB     26       DOPC     H2Y      HAL2     0.900000E-01   1.00800           0
      3995 MEMB     26       DOPC     C23      CTL2    -0.180000       12.0110           0
      3996 MEMB     26       DOPC     H3R      HAL2     0.900000E-01   1.00800           0
      3997 MEMB     26       DOPC     H3S      HAL2     0.900000E-01   1.00800           0
      3998 MEMB     26       DOPC     C24      CTL2    -0.180000       12.0110           0
      3999 MEMB     26       DOPC     H4R      HAL2     0.900000E-01   1.00800           0
      4000 MEMB     26       DOPC     H4S      HAL2     0.900000E-01   1.00800           0
      4001 MEMB     26       DOPC     C25      CTL2    -0.180000       12.0110           0
      4002 MEMB     26       DOPC     H5R      HAL2     0.900000E-01   1.00800           0
      4003 MEMB     26       DOPC     H5S      HAL2     0.900000E-01   1.00800           0
      4004 MEMB     26       DOPC     C26      CTL2    -0.180000       12.0110           0
      4005 MEMB     26       DOPC     H6R      HAL2     0.900000E-01   1.00800           0
      4006 MEMB     26       DOPC     H6S      HAL2     0.900000E-01   1.00800           0
      4007 MEMB     26       DOPC     C27      CTL2    -0.180000       12.0110           0
      4008 MEMB     26       DOPC     H7R      HAL2     0.900000E-01   1.00800           0
      4009 MEMB     26       DOPC     H7S      HAL2     0.900000E-01   1.00800           0
      4010 MEMB     26       DOPC     C28      CTL2    -0.180000       12.0110           0
      4011 MEMB     26       DOPC     H8R      HAL2     0.900000E-01   1.00800           0
      4012 MEMB     26       DOPC     H8S      HAL2     0.900000E-01   1.00800           0
      4013 MEMB     26       DOPC     C29      CEL1    -0.150000       12.0110           0
      4014 MEMB     26       DOPC     H9R      HEL1     0.150000       1.00800           0
      4015 MEMB     26       DOPC     C210     CEL1    -0.150000       12.0110           0
      4016 MEMB     26       DOPC     H10R     HEL1     0.150000       1.00800           0
      4017 MEMB     26       DOPC     C211     CTL2    -0.180000       12.0110           0
      4018 MEMB     26       DOPC     H11R     HAL2     0.900000E-01   1.00800           0
      4019 MEMB     26       DOPC     H11S     HAL2     0.900000E-01   1.00800           0
      4020 MEMB     26       DOPC     C212     CTL2    -0.180000       12.0110           0
      4021 MEMB     26       DOPC     H12R     HAL2     0.900000E-01   1.00800           0
      4022 MEMB     26       DOPC     H12S     HAL2     0.900000E-01   1.00800           0
      4023 MEMB     26       DOPC     C213     CTL2    -0.180000       12.0110           0
      4024 MEMB     26       DOPC     H13R     HAL2     0.900000E-01   1.00800           0
      4025 MEMB     26       DOPC     H13S     HAL2     0.900000E-01   1.00800           0
      4026 MEMB     26       DOPC     C214     CTL2    -0.180000       12.0110           0
      4027 MEMB     26       DOPC     H14R     HAL2     0.900000E-01   1.00800           0
      4028 MEMB     26       DOPC     H14S     HAL2     0.900000E-01   1.00800           0
      4029 MEMB     26       DOPC     C215     CTL2    -0.180000       12.0110           0
      4030 MEMB     26       DOPC     H15R     HAL2     0.900000E-01   1.00800           0
      4031 MEMB     26       DOPC     H15S     HAL2     0.900000E-01   1.00800           0
      4032 MEMB     26       DOPC     C216     CTL2    -0.180000       12.0110           0
      4033 MEMB     26       DOPC     H16R     HAL2     0.900000E-01   1.00800           0
      4034 MEMB     26       DOPC     H16S     HAL2     0.900000E-01   1.00800           0
      4035 MEMB     26       DOPC     C217     CTL2    -0.180000       12.0110           0
      4036 MEMB     26       DOPC     H17R     HAL2     0.900000E-01   1.00800           0
      4037 MEMB     26       DOPC     H17S     HAL2     0.900000E-01   1.00800           0
      4038 MEMB     26       DOPC     C218     CTL3    -0.270000       12.0110           0
      4039 MEMB     26       DOPC     H18R     HAL3     0.900000E-01   1.00800           0
      4040 MEMB     26       DOPC     H18S     HAL3     0.900000E-01   1.00800           0
      4041 MEMB     26       DOPC     H18T     HAL3     0.900000E-01   1.00800           0
      4042 MEMB     26       DOPC     C33      CTL2    -0.180000       12.0110           0
      4043 MEMB     26       DOPC     H3X      HAL2     0.900000E-01   1.00800           0
      4044 MEMB     26       DOPC     H3Y      HAL2     0.900000E-01   1.00800           0
      4045 MEMB     26       DOPC     C34      CTL2    -0.180000       12.0110           0
      4046 MEMB     26       DOPC     H4X      HAL2     0.900000E-01   1.00800           0
      4047 MEMB     26       DOPC     H4Y      HAL2     0.900000E-01   1.00800           0
      4048 MEMB     26       DOPC     C35      CTL2    -0.180000       12.0110           0
      4049 MEMB     26       DOPC     H5X      HAL2     0.900000E-01   1.00800           0
      4050 MEMB     26       DOPC     H5Y      HAL2     0.900000E-01   1.00800           0
      4051 MEMB     26       DOPC     C36      CTL2    -0.180000       12.0110           0
      4052 MEMB     26       DOPC     H6X      HAL2     0.900000E-01   1.00800           0
      4053 MEMB     26       DOPC     H6Y      HAL2     0.900000E-01   1.00800           0
      4054 MEMB     26       DOPC     C37      CTL2    -0.180000       12.0110           0
      4055 MEMB     26       DOPC     H7X      HAL2     0.900000E-01   1.00800           0
      4056 MEMB     26       DOPC     H7Y      HAL2     0.900000E-01   1.00800           0
      4057 MEMB     26       DOPC     C38      CTL2    -0.180000       12.0110           0
      4058 MEMB     26       DOPC     H8X      HAL2     0.900000E-01   1.00800           0
      4059 MEMB     26       DOPC     H8Y      HAL2     0.900000E-01   1.00800           0
      4060 MEMB     26       DOPC     C39      CEL1    -0.150000       12.0110           0
      4061 MEMB     26       DOPC     H9X      HEL1     0.150000       1.00800           0
      4062 MEMB     26       DOPC     C310     CEL1    -0.150000       12.0110           0
      4063 MEMB     26       DOPC     H10X     HEL1     0.150000       1.00800           0
      4064 MEMB     26       DOPC     C311     CTL2    -0.180000       12.0110           0
      4065 MEMB     26       DOPC     H11X     HAL2     0.900000E-01   1.00800           0
      4066 MEMB     26       DOPC     H11Y     HAL2     0.900000E-01   1.00800           0
      4067 MEMB     26       DOPC     C312     CTL2    -0.180000       12.0110           0
      4068 MEMB     26       DOPC     H12X     HAL2     0.900000E-01   1.00800           0
      4069 MEMB     26       DOPC     H12Y     HAL2     0.900000E-01   1.00800           0
      4070 MEMB     26       DOPC     C313     CTL2    -0.180000       12.0110           0
      4071 MEMB     26       DOPC     H13X     HAL2     0.900000E-01   1.00800           0
      4072 MEMB     26       DOPC     H13Y     HAL2     0.900000E-01   1.00800           0
      4073 MEMB     26       DOPC     C314     CTL2    -0.180000       12.0110           0
      4074 MEMB     26       DOPC     H14X     HAL2     0.900000E-01   1.00800           0
      4075 MEMB     26       DOPC     H14Y     HAL2     0.900000E-01   1.00800           0
      4076 MEMB     26       DOPC     C315     CTL2    -0.180000       12.0110           0
      4077 MEMB     26       DOPC     H15X     HAL2     0.900000E-01   1.00800           0
      4078 MEMB     26       DOPC     H15Y     HAL2     0.900000E-01   1.00800           0
      4079 MEMB     26       DOPC     C316     CTL2    -0.180000       12.0110           0
      4080 MEMB     26       DOPC     H16X     HAL2     0.900000E-01   1.00800           0
      4081 MEMB     26       DOPC     H16Y     HAL2     0.900000E-01   1.00800           0
      4082 MEMB     26       DOPC     C317     CTL2    -0.180000       12.0110           0
      4083 MEMB     26       DOPC     H17X     HAL2     0.900000E-01   1.00800           0
      4084 MEMB     26       DOPC     H17Y     HAL2     0.900000E-01   1.00800           0
      4085 MEMB     26       DOPC     C318     CTL3    -0.270000       12.0110           0
      4086 MEMB     26       DOPC     H18X     HAL3     0.900000E-01   1.00800           0
      4087 MEMB     26       DOPC     H18Y     HAL3     0.900000E-01   1.00800           0
      4088 MEMB     26       DOPC     H18Z     HAL3     0.900000E-01   1.00800           0
      4089 MEMB     27       DOPC     N        NTL     -0.600000       14.0070           0
      4090 MEMB     27       DOPC     C12      CTL2    -0.100000       12.0110           0
      4091 MEMB     27       DOPC     H12A     HL       0.250000       1.00800           0
      4092 MEMB     27       DOPC     H12B     HL       0.250000       1.00800           0
      4093 MEMB     27       DOPC     C13      CTL5    -0.350000       12.0110           0
      4094 MEMB     27       DOPC     H13A     HL       0.250000       1.00800           0
      4095 MEMB     27       DOPC     H13B     HL       0.250000       1.00800           0
      4096 MEMB     27       DOPC     H13C     HL       0.250000       1.00800           0
      4097 MEMB     27       DOPC     C14      CTL5    -0.350000       12.0110           0
      4098 MEMB     27       DOPC     H14A     HL       0.250000       1.00800           0
      4099 MEMB     27       DOPC     H14B     HL       0.250000       1.00800           0
      4100 MEMB     27       DOPC     H14C     HL       0.250000       1.00800           0
      4101 MEMB     27       DOPC     C15      CTL5    -0.350000       12.0110           0
      4102 MEMB     27       DOPC     H15A     HL       0.250000       1.00800           0
      4103 MEMB     27       DOPC     H15B     HL       0.250000       1.00800           0
      4104 MEMB     27       DOPC     H15C     HL       0.250000       1.00800           0
      4105 MEMB     27       DOPC     C11      CTL2    -0.800000E-01   12.0110           0
      4106 MEMB     27       DOPC     H11A     HAL2     0.900000E-01   1.00800           0
      4107 MEMB     27       DOPC     H11B     HAL2     0.900000E-01   1.00800           0
      4108 MEMB     27       DOPC     P        PL        1.50000       30.9740           0
      4109 MEMB     27       DOPC     O13      O2L     -0.780000       15.9994           0
      4110 MEMB     27       DOPC     O14      O2L     -0.780000       15.9994           0
      4111 MEMB     27       DOPC     O12      OSLP    -0.570000       15.9994           0
      4112 MEMB     27       DOPC     O11      OSLP    -0.570000       15.9994           0
      4113 MEMB     27       DOPC     C1       CTL2    -0.800000E-01   12.0110           0
      4114 MEMB     27       DOPC     HA       HAL2     0.900000E-01   1.00800           0
      4115 MEMB     27       DOPC     HB       HAL2     0.900000E-01   1.00800           0
      4116 MEMB     27       DOPC     C2       CTL1     0.170000       12.0110           0
      4117 MEMB     27       DOPC     HS       HAL1     0.900000E-01   1.00800           0
      4118 MEMB     27       DOPC     O21      OSL     -0.490000       15.9994           0
      4119 MEMB     27       DOPC     C21      CL       0.900000       12.0110           0
      4120 MEMB     27       DOPC     O22      OBL     -0.630000       15.9994           0
      4121 MEMB     27       DOPC     C22      CTL2    -0.220000       12.0110           0
      4122 MEMB     27       DOPC     H2R      HAL2     0.900000E-01   1.00800           0
      4123 MEMB     27       DOPC     H2S      HAL2     0.900000E-01   1.00800           0
      4124 MEMB     27       DOPC     C3       CTL2     0.800000E-01   12.0110           0
      4125 MEMB     27       DOPC     HX       HAL2     0.900000E-01   1.00800           0
      4126 MEMB     27       DOPC     HY       HAL2     0.900000E-01   1.00800           0
      4127 MEMB     27       DOPC     O31      OSL     -0.490000       15.9994           0
      4128 MEMB     27       DOPC     C31      CL       0.900000       12.0110           0
      4129 MEMB     27       DOPC     O32      OBL     -0.630000       15.9994           0
      4130 MEMB     27       DOPC     C32      CTL2    -0.220000       12.0110           0
      4131 MEMB     27       DOPC     H2X      HAL2     0.900000E-01   1.00800           0
      4132 MEMB     27       DOPC     H2Y      HAL2     0.900000E-01   1.00800           0
      4133 MEMB     27       DOPC     C23      CTL2    -0.180000       12.0110           0
      4134 MEMB     27       DOPC     H3R      HAL2     0.900000E-01   1.00800           0
      4135 MEMB     27       DOPC     H3S      HAL2     0.900000E-01   1.00800           0
      4136 MEMB     27       DOPC     C24      CTL2    -0.180000       12.0110           0
      4137 MEMB     27       DOPC     H4R      HAL2     0.900000E-01   1.00800           0
      4138 MEMB     27       DOPC     H4S      HAL2     0.900000E-01   1.00800           0
      4139 MEMB     27       DOPC     C25      CTL2    -0.180000       12.0110           0
      4140 MEMB     27       DOPC     H5R      HAL2     0.900000E-01   1.00800           0
      4141 MEMB     27       DOPC     H5S      HAL2     0.900000E-01   1.00800           0
      4142 MEMB     27       DOPC     C26      CTL2    -0.180000       12.0110           0
      4143 MEMB     27       DOPC     H6R      HAL2     0.900000E-01   1.00800           0
      4144 MEMB     27       DOPC     H6S      HAL2     0.900000E-01   1.00800           0
      4145 MEMB     27       DOPC     C27      CTL2    -0.180000       12.0110           0
      4146 MEMB     27       DOPC     H7R      HAL2     0.900000E-01   1.00800           0
      4147 MEMB     27       DOPC     H7S      HAL2     0.900000E-01   1.00800           0
      4148 MEMB     27       DOPC     C28      CTL2    -0.180000       12.0110           0
      4149 MEMB     27       DOPC     H8R      HAL2     0.900000E-01   1.00800           0
      4150 MEMB     27       DOPC     H8S      HAL2     0.900000E-01   1.00800           0
      4151 MEMB     27       DOPC     C29      CEL1    -0.150000       12.0110           0
      4152 MEMB     27       DOPC     H9R      HEL1     0.150000       1.00800           0
      4153 MEMB     27       DOPC     C210     CEL1    -0.150000       12.0110           0
      4154 MEMB     27       DOPC     H10R     HEL1     0.150000       1.00800           0
      4155 MEMB     27       DOPC     C211     CTL2    -0.180000       12.0110           0
      4156 MEMB     27       DOPC     H11R     HAL2     0.900000E-01   1.00800           0
      4157 MEMB     27       DOPC     H11S     HAL2     0.900000E-01   1.00800           0
      4158 MEMB     27       DOPC     C212     CTL2    -0.180000       12.0110           0
      4159 MEMB     27       DOPC     H12R     HAL2     0.900000E-01   1.00800           0
      4160 MEMB     27       DOPC     H12S     HAL2     0.900000E-01   1.00800           0
      4161 MEMB     27       DOPC     C213     CTL2    -0.180000       12.0110           0
      4162 MEMB     27       DOPC     H13R     HAL2     0.900000E-01   1.00800           0
      4163 MEMB     27       DOPC     H13S     HAL2     0.900000E-01   1.00800           0
      4164 MEMB     27       DOPC     C214     CTL2    -0.180000       12.0110           0
      4165 MEMB     27       DOPC     H14R     HAL2     0.900000E-01   1.00800           0
      4166 MEMB     27       DOPC     H14S     HAL2     0.900000E-01   1.00800           0
      4167 MEMB     27       DOPC     C215     CTL2    -0.180000       12.0110           0
      4168 MEMB     27       DOPC     H15R     HAL2     0.900000E-01   1.00800           0
      4169 MEMB     27       DOPC     H15S     HAL2     0.900000E-01   1.00800           0
      4170 MEMB     27       DOPC     C216     CTL2    -0.180000       12.0110           0
      4171 MEMB     27       DOPC     H16R     HAL2     0.900000E-01   1.00800           0
      4172 MEMB     27       DOPC     H16S     HAL2     0.900000E-01   1.00800           0
      4173 MEMB     27       DOPC     C217     CTL2    -0.180000       12.0110           0
      4174 MEMB     27       DOPC     H17R     HAL2     0.900000E-01   1.00800           0
      4175 MEMB     27       DOPC     H17S     HAL2     0.900000E-01   1.00800           0
      4176 MEMB     27       DOPC     C218     CTL3    -0.270000       12.0110           0
      4177 MEMB     27       DOPC     H18R     HAL3     0.900000E-01   1.00800           0
      4178 MEMB     27       DOPC     H18S     HAL3     0.900000E-01   1.00800           0
      4179 MEMB     27       DOPC     H18T     HAL3     0.900000E-01   1.00800           0
      4180 MEMB     27       DOPC     C33      CTL2    -0.180000       12.0110           0
      4181 MEMB     27       DOPC     H3X      HAL2     0.900000E-01   1.00800           0
      4182 MEMB     27       DOPC     H3Y      HAL2     0.900000E-01   1.00800           0
      4183 MEMB     27       DOPC     C34      CTL2    -0.180000       12.0110           0
      4184 MEMB     27       DOPC     H4X      HAL2     0.900000E-01   1.00800           0
      4185 MEMB     27       DOPC     H4Y      HAL2     0.900000E-01   1.00800           0
      4186 MEMB     27       DOPC     C35      CTL2    -0.180000       12.0110           0
      4187 MEMB     27       DOPC     H5X      HAL2     0.900000E-01   1.00800           0
      4188 MEMB     27       DOPC     H5Y      HAL2     0.900000E-01   1.00800           0
      4189 MEMB     27       DOPC     C36      CTL2    -0.180000       12.0110           0
      4190 MEMB     27       DOPC     H6X      HAL2     0.900000E-01   1.00800           0
      4191 MEMB     27       DOPC     H6Y      HAL2     0.900000E-01   1.00800           0
      4192 MEMB     27       DOPC     C37      CTL2    -0.180000       12.0110           0
      4193 MEMB     27       DOPC     H7X      HAL2     0.900000E-01   1.00800           0
      4194 MEMB     27       DOPC     H7Y      HAL2     0.900000E-01   1.00800           0
      4195 MEMB     27       DOPC     C38      CTL2    -0.180000       12.0110           0
      4196 MEMB     27       DOPC     H8X      HAL2     0.900000E-01   1.00800           0
      4197 MEMB     27       DOPC     H8Y      HAL2     0.900000E-01   1.00800           0
      4198 MEMB     27       DOPC     C39      CEL1    -0.150000       12.0110           0
      4199 MEMB     27       DOPC     H9X      HEL1     0.150000       1.00800           0
      4200 MEMB     27       DOPC     C310     CEL1    -0.150000       12.0110           0
      4201 MEMB     27       DOPC     H10X     HEL1     0.150000       1.00800           0
      4202 MEMB     27       DOPC     C311     CTL2    -0.180000       12.0110           0
      4203 MEMB     27       DOPC     H11X     HAL2     0.900000E-01   1.00800           0
      4204 MEMB     27       DOPC     H11Y     HAL2     0.900000E-01   1.00800           0
      4205 MEMB     27       DOPC     C312     CTL2    -0.180000       12.0110           0
      4206 MEMB     27       DOPC     H12X     HAL2     0.900000E-01   1.00800           0
      4207 MEMB     27       DOPC     H12Y     HAL2     0.900000E-01   1.00800           0
      4208 MEMB     27       DOPC     C313     CTL2    -0.180000       12.0110           0
      4209 MEMB     27       DOPC     H13X     HAL2     0.900000E-01   1.00800           0
      4210 MEMB     27       DOPC     H13Y     HAL2     0.900000E-01   1.00800           0
      4211 MEMB     27       DOPC     C314     CTL2    -0.180000       12.0110           0
      4212 MEMB     27       DOPC     H14X     HAL2     0.900000E-01   1.00800           0
      4213 MEMB     27       DOPC     H14Y     HAL2     0.900000E-01   1.00800           0
      4214 MEMB     27       DOPC     C315     CTL2    -0.180000       12.0110           0
      4215 MEMB     27       DOPC     H15X     HAL2     0.900000E-01   1.00800           0
      4216 MEMB     27       DOPC     H15Y     HAL2     0.900000E-01   1.00800           0
      4217 MEMB     27       DOPC     C316     CTL2    -0.180000       12.0110           0
      4218 MEMB     27       DOPC     H16X     HAL2     0.900000E-01   1.00800           0
      4219 MEMB     27       DOPC     H16Y     HAL2     0.900000E-01   1.00800           0
      4220 MEMB     27       DOPC     C317     CTL2    -0.180000       12.0110           0
      4221 MEMB     27       DOPC     H17X     HAL2     0.900000E-01   1.00800           0
      4222 MEMB     27       DOPC     H17Y     HAL2     0.900000E-01   1.00800           0
      4223 MEMB     27       DOPC     C318     CTL3    -0.270000       12.0110           0
      4224 MEMB     27       DOPC     H18X     HAL3     0.900000E-01   1.00800           0
      4225 MEMB     27       DOPC     H18Y     HAL3     0.900000E-01   1.00800           0
      4226 MEMB     27       DOPC     H18Z     HAL3     0.900000E-01   1.00800           0
      4227 MEMB     28       DOPC     N        NTL     -0.600000       14.0070           0
      4228 MEMB     28       DOPC     C12      CTL2    -0.100000       12.0110           0
      4229 MEMB     28       DOPC     H12A     HL       0.250000       1.00800           0
      4230 MEMB     28       DOPC     H12B     HL       0.250000       1.00800           0
      4231 MEMB     28       DOPC     C13      CTL5    -0.350000       12.0110           0
      4232 MEMB     28       DOPC     H13A     HL       0.250000       1.00800           0
      4233 MEMB     28       DOPC     H13B     HL       0.250000       1.00800           0
      4234 MEMB     28       DOPC     H13C     HL       0.250000       1.00800           0
      4235 MEMB     28       DOPC     C14      CTL5    -0.350000       12.0110           0
      4236 MEMB     28       DOPC     H14A     HL       0.250000       1.00800           0
      4237 MEMB     28       DOPC     H14B     HL       0.250000       1.00800           0
      4238 MEMB     28       DOPC     H14C     HL       0.250000       1.00800           0
      4239 MEMB     28       DOPC     C15      CTL5    -0.350000       12.0110           0
      4240 MEMB     28       DOPC     H15A     HL       0.250000       1.00800           0
      4241 MEMB     28       DOPC     H15B     HL       0.250000       1.00800           0
      4242 MEMB     28       DOPC     H15C     HL       0.250000       1.00800           0
      4243 MEMB     28       DOPC     C11      CTL2    -0.800000E-01   12.0110           0
      4244 MEMB     28       DOPC     H11A     HAL2     0.900000E-01   1.00800           0
      4245 MEMB     28       DOPC     H11B     HAL2     0.900000E-01   1.00800           0
      4246 MEMB     28       DOPC     P        PL        1.50000       30.9740           0
      4247 MEMB     28       DOPC     O13      O2L     -0.780000       15.9994           0
      4248 MEMB     28       DOPC     O14      O2L     -0.780000       15.9994           0
      4249 MEMB     28       DOPC     O12      OSLP    -0.570000       15.9994           0
      4250 MEMB     28       DOPC     O11      OSLP    -0.570000       15.9994           0
      4251 MEMB     28       DOPC     C1       CTL2    -0.800000E-01   12.0110           0
      4252 MEMB     28       DOPC     HA       HAL2     0.900000E-01   1.00800           0
      4253 MEMB     28       DOPC     HB       HAL2     0.900000E-01   1.00800           0
      4254 MEMB     28       DOPC     C2       CTL1     0.170000       12.0110           0
      4255 MEMB     28       DOPC     HS       HAL1     0.900000E-01   1.00800           0
      4256 MEMB     28       DOPC     O21      OSL     -0.490000       15.9994           0
      4257 MEMB     28       DOPC     C21      CL       0.900000       12.0110           0
      4258 MEMB     28       DOPC     O22      OBL     -0.630000       15.9994           0
      4259 MEMB     28       DOPC     C22      CTL2    -0.220000       12.0110           0
      4260 MEMB     28       DOPC     H2R      HAL2     0.900000E-01   1.00800           0
      4261 MEMB     28       DOPC     H2S      HAL2     0.900000E-01   1.00800           0
      4262 MEMB     28       DOPC     C3       CTL2     0.800000E-01   12.0110           0
      4263 MEMB     28       DOPC     HX       HAL2     0.900000E-01   1.00800           0
      4264 MEMB     28       DOPC     HY       HAL2     0.900000E-01   1.00800           0
      4265 MEMB     28       DOPC     O31      OSL     -0.490000       15.9994           0
      4266 MEMB     28       DOPC     C31      CL       0.900000       12.0110           0
      4267 MEMB     28       DOPC     O32      OBL     -0.630000       15.9994           0
      4268 MEMB     28       DOPC     C32      CTL2    -0.220000       12.0110           0
      4269 MEMB     28       DOPC     H2X      HAL2     0.900000E-01   1.00800           0
      4270 MEMB     28       DOPC     H2Y      HAL2     0.900000E-01   1.00800           0
      4271 MEMB     28       DOPC     C23      CTL2    -0.180000       12.0110           0
      4272 MEMB     28       DOPC     H3R      HAL2     0.900000E-01   1.00800           0
      4273 MEMB     28       DOPC     H3S      HAL2     0.900000E-01   1.00800           0
      4274 MEMB     28       DOPC     C24      CTL2    -0.180000       12.0110           0
      4275 MEMB     28       DOPC     H4R      HAL2     0.900000E-01   1.00800           0
      4276 MEMB     28       DOPC     H4S      HAL2     0.900000E-01   1.00800           0
      4277 MEMB     28       DOPC     C25      CTL2    -0.180000       12.0110           0
      4278 MEMB     28       DOPC     H5R      HAL2     0.900000E-01   1.00800           0
      4279 MEMB     28       DOPC     H5S      HAL2     0.900000E-01   1.00800           0
      4280 MEMB     28       DOPC     C26      CTL2    -0.180000       12.0110           0
      4281 MEMB     28       DOPC     H6R      HAL2     0.900000E-01   1.00800           0
      4282 MEMB     28       DOPC     H6S      HAL2     0.900000E-01   1.00800           0
      4283 MEMB     28       DOPC     C27      CTL2    -0.180000       12.0110           0
      4284 MEMB     28       DOPC     H7R      HAL2     0.900000E-01   1.00800           0
      4285 MEMB     28       DOPC     H7S      HAL2     0.900000E-01   1.00800           0
      4286 MEMB     28       DOPC     C28      CTL2    -0.180000       12.0110           0
      4287 MEMB     28       DOPC     H8R      HAL2     0.900000E-01   1.00800           0
      4288 MEMB     28       DOPC     H8S      HAL2     0.900000E-01   1.00800           0
      4289 MEMB     28       DOPC     C29      CEL1    -0.150000       12.0110           0
      4290 MEMB     28       DOPC     H9R      HEL1     0.150000       1.00800           0
      4291 MEMB     28       DOPC     C210     CEL1    -0.150000       12.0110           0
      4292 MEMB     28       DOPC     H10R     HEL1     0.150000       1.00800           0
      4293 MEMB     28       DOPC     C211     CTL2    -0.180000       12.0110           0
      4294 MEMB     28       DOPC     H11R     HAL2     0.900000E-01   1.00800           0
      4295 MEMB     28       DOPC     H11S     HAL2     0.900000E-01   1.00800           0
      4296 MEMB     28       DOPC     C212     CTL2    -0.180000       12.0110           0
      4297 MEMB     28       DOPC     H12R     HAL2     0.900000E-01   1.00800           0
      4298 MEMB     28       DOPC     H12S     HAL2     0.900000E-01   1.00800           0
      4299 MEMB     28       DOPC     C213     CTL2    -0.180000       12.0110           0
      4300 MEMB     28       DOPC     H13R     HAL2     0.900000E-01   1.00800           0
      4301 MEMB     28       DOPC     H13S     HAL2     0.900000E-01   1.00800           0
      4302 MEMB     28       DOPC     C214     CTL2    -0.180000       12.0110           0
      4303 MEMB     28       DOPC     H14R     HAL2     0.900000E-01   1.00800           0
      4304 MEMB     28       DOPC     H14S     HAL2     0.900000E-01   1.00800           0
      4305 MEMB     28       DOPC     C215     CTL2    -0.180000       12.0110           0
      4306 MEMB     28       DOPC     H15R     HAL2     0.900000E-01   1.00800           0
      4307 MEMB     28       DOPC     H15S     HAL2     0.900000E-01   1.00800           0
      4308 MEMB     28       DOPC     C216     CTL2    -0.180000       12.0110           0
      4309 MEMB     28       DOPC     H16R     HAL2     0.900000E-01   1.00800           0
      4310 MEMB     28       DOPC     H16S     HAL2     0.900000E-01   1.00800           0
      4311 MEMB     28       DOPC     C217     CTL2    -0.180000       12.0110           0
      4312 MEMB     28       DOPC     H17R     HAL2     0.900000E-01   1.00800           0
      4313 MEMB     28       DOPC     H17S     HAL2     0.900000E-01   1.00800           0
      4314 MEMB     28       DOPC     C218     CTL3    -0.270000       12.0110           0
      4315 MEMB     28       DOPC     H18R     HAL3     0.900000E-01   1.00800           0
      4316 MEMB     28       DOPC     H18S     HAL3     0.900000E-01   1.00800           0
      4317 MEMB     28       DOPC     H18T     HAL3     0.900000E-01   1.00800           0
      4318 MEMB     28       DOPC     C33      CTL2    -0.180000       12.0110           0
      4319 MEMB     28       DOPC     H3X      HAL2     0.900000E-01   1.00800           0
      4320 MEMB     28       DOPC     H3Y      HAL2     0.900000E-01   1.00800           0
      4321 MEMB     28       DOPC     C34      CTL2    -0.180000       12.0110           0
      4322 MEMB     28       DOPC     H4X      HAL2     0.900000E-01   1.00800           0
      4323 MEMB     28       DOPC     H4Y      HAL2     0.900000E-01   1.00800           0
      4324 MEMB     28       DOPC     C35      CTL2    -0.180000       12.0110           0
      4325 MEMB     28       DOPC     H5X      HAL2     0.900000E-01   1.00800           0
      4326 MEMB     28       DOPC     H5Y      HAL2     0.900000E-01   1.00800           0
      4327 MEMB     28       DOPC     C36      CTL2    -0.180000       12.0110           0
      4328 MEMB     28       DOPC     H6X      HAL2     0.900000E-01   1.00800           0
      4329 MEMB     28       DOPC     H6Y      HAL2     0.900000E-01   1.00800           0
      4330 MEMB     28       DOPC     C37      CTL2    -0.180000       12.0110           0
      4331 MEMB     28       DOPC     H7X      HAL2     0.900000E-01   1.00800           0
      4332 MEMB     28       DOPC     H7Y      HAL2     0.900000E-01   1.00800           0
      4333 MEMB     28       DOPC     C38      CTL2    -0.180000       12.0110           0
      4334 MEMB     28       DOPC     H8X      HAL2     0.900000E-01   1.00800           0
      4335 MEMB     28       DOPC     H8Y      HAL2     0.900000E-01   1.00800           0
      4336 MEMB     28       DOPC     C39      CEL1    -0.150000       12.0110           0
      4337 MEMB     28       DOPC     H9X      HEL1     0.150000       1.00800           0
      4338 MEMB     28       DOPC     C310     CEL1    -0.150000       12.0110           0
      4339 MEMB     28       DOPC     H10X     HEL1     0.150000       1.00800           0
      4340 MEMB     28       DOPC     C311     CTL2    -0.180000       12.0110           0
      4341 MEMB     28       DOPC     H11X     HAL2     0.900000E-01   1.00800           0
      4342 MEMB     28       DOPC     H11Y     HAL2     0.900000E-01   1.00800           0
      4343 MEMB     28       DOPC     C312     CTL2    -0.180000       12.0110           0
      4344 MEMB     28       DOPC     H12X     HAL2     0.900000E-01   1.00800           0
      4345 MEMB     28       DOPC     H12Y     HAL2     0.900000E-01   1.00800           0
      4346 MEMB     28       DOPC     C313     CTL2    -0.180000       12.0110           0
      4347 MEMB     28       DOPC     H13X     HAL2     0.900000E-01   1.00800           0
      4348 MEMB     28       DOPC     H13Y     HAL2     0.900000E-01   1.00800           0
      4349 MEMB     28       DOPC     C314     CTL2    -0.180000       12.0110           0
      4350 MEMB     28       DOPC     H14X     HAL2     0.900000E-01   1.00800           0
      4351 MEMB     28       DOPC     H14Y     HAL2     0.900000E-01   1.00800           0
      4352 MEMB     28       DOPC     C315     CTL2    -0.180000       12.0110           0
      4353 MEMB     28       DOPC     H15X     HAL2     0.900000E-01   1.00800           0
      4354 MEMB     28       DOPC     H15Y     HAL2     0.900000E-01   1.00800           0
      4355 MEMB     28       DOPC     C316     CTL2    -0.180000       12.0110           0
      4356 MEMB     28       DOPC     H16X     HAL2     0.900000E-01   1.00800           0
      4357 MEMB     28       DOPC     H16Y     HAL2     0.900000E-01   1.00800           0
      4358 MEMB     28       DOPC     C317     CTL2    -0.180000       12.0110           0
      4359 MEMB     28       DOPC     H17X     HAL2     0.900000E-01   1.00800           0
      4360 MEMB     28       DOPC     H17Y     HAL2     0.900000E-01   1.00800           0
      4361 MEMB     28       DOPC     C318     CTL3    -0.270000       12.0110           0
      4362 MEMB     28       DOPC     H18X     HAL3     0.900000E-01   1.00800           0
      4363 MEMB     28       DOPC     H18Y     HAL3     0.900000E-01   1.00800           0
      4364 MEMB     28       DOPC     H18Z     HAL3     0.900000E-01   1.00800           0
      4365 MEMB     29       DOPC     N        NTL     -0.600000       14.0070           0
      4366 MEMB     29       DOPC     C12      CTL2    -0.100000       12.0110           0
      4367 MEMB     29       DOPC     H12A     HL       0.250000       1.00800           0
      4368 MEMB     29       DOPC     H12B     HL       0.250000       1.00800           0
      4369 MEMB     29       DOPC     C13      CTL5    -0.350000       12.0110           0
      4370 MEMB     29       DOPC     H13A     HL       0.250000       1.00800           0
      4371 MEMB     29       DOPC     H13B     HL       0.250000       1.00800           0
      4372 MEMB     29       DOPC     H13C     HL       0.250000       1.00800           0
      4373 MEMB     29       DOPC     C14      CTL5    -0.350000       12.0110           0
      4374 MEMB     29       DOPC     H14A     HL       0.250000       1.00800           0
      4375 MEMB     29       DOPC     H14B     HL       0.250000       1.00800           0
      4376 MEMB     29       DOPC     H14C     HL       0.250000       1.00800           0
      4377 MEMB     29       DOPC     C15      CTL5    -0.350000       12.0110           0
      4378 MEMB     29       DOPC     H15A     HL       0.250000       1.00800           0
      4379 MEMB     29       DOPC     H15B     HL       0.250000       1.00800           0
      4380 MEMB     29       DOPC     H15C     HL       0.250000       1.00800           0
      4381 MEMB     29       DOPC     C11      CTL2    -0.800000E-01   12.0110           0
      4382 MEMB     29       DOPC     H11A     HAL2     0.900000E-01   1.00800           0
      4383 MEMB     29       DOPC     H11B     HAL2     0.900000E-01   1.00800           0
      4384 MEMB     29       DOPC     P        PL        1.50000       30.9740           0
      4385 MEMB     29       DOPC     O13      O2L     -0.780000       15.9994           0
      4386 MEMB     29       DOPC     O14      O2L     -0.780000       15.9994           0
      4387 MEMB     29       DOPC     O12      OSLP    -0.570000       15.9994           0
      4388 MEMB     29       DOPC     O11      OSLP    -0.570000       15.9994           0
      4389 MEMB     29       DOPC     C1       CTL2    -0.800000E-01   12.0110           0
      4390 MEMB     29       DOPC     HA       HAL2     0.900000E-01   1.00800           0
      4391 MEMB     29       DOPC     HB       HAL2     0.900000E-01   1.00800           0
      4392 MEMB     29       DOPC     C2       CTL1     0.170000       12.0110           0
      4393 MEMB     29       DOPC     HS       HAL1     0.900000E-01   1.00800           0
      4394 MEMB     29       DOPC     O21      OSL     -0.490000       15.9994           0
      4395 MEMB     29       DOPC     C21      CL       0.900000       12.0110           0
      4396 MEMB     29       DOPC     O22      OBL     -0.630000       15.9994           0
      4397 MEMB     29       DOPC     C22      CTL2    -0.220000       12.0110           0
      4398 MEMB     29       DOPC     H2R      HAL2     0.900000E-01   1.00800           0
      4399 MEMB     29       DOPC     H2S      HAL2     0.900000E-01   1.00800           0
      4400 MEMB     29       DOPC     C3       CTL2     0.800000E-01   12.0110           0
      4401 MEMB     29       DOPC     HX       HAL2     0.900000E-01   1.00800           0
      4402 MEMB     29       DOPC     HY       HAL2     0.900000E-01   1.00800           0
      4403 MEMB     29       DOPC     O31      OSL     -0.490000       15.9994           0
      4404 MEMB     29       DOPC     C31      CL       0.900000       12.0110           0
      4405 MEMB     29       DOPC     O32      OBL     -0.630000       15.9994           0
      4406 MEMB     29       DOPC     C32      CTL2    -0.220000       12.0110           0
      4407 MEMB     29       DOPC     H2X      HAL2     0.900000E-01   1.00800           0
      4408 MEMB     29       DOPC     H2Y      HAL2     0.900000E-01   1.00800           0
      4409 MEMB     29       DOPC     C23      CTL2    -0.180000       12.0110           0
      4410 MEMB     29       DOPC     H3R      HAL2     0.900000E-01   1.00800           0
      4411 MEMB     29       DOPC     H3S      HAL2     0.900000E-01   1.00800           0
      4412 MEMB     29       DOPC     C24      CTL2    -0.180000       12.0110           0
      4413 MEMB     29       DOPC     H4R      HAL2     0.900000E-01   1.00800           0
      4414 MEMB     29       DOPC     H4S      HAL2     0.900000E-01   1.00800           0
      4415 MEMB     29       DOPC     C25      CTL2    -0.180000       12.0110           0
      4416 MEMB     29       DOPC     H5R      HAL2     0.900000E-01   1.00800           0
      4417 MEMB     29       DOPC     H5S      HAL2     0.900000E-01   1.00800           0
      4418 MEMB     29       DOPC     C26      CTL2    -0.180000       12.0110           0
      4419 MEMB     29       DOPC     H6R      HAL2     0.900000E-01   1.00800           0
      4420 MEMB     29       DOPC     H6S      HAL2     0.900000E-01   1.00800           0
      4421 MEMB     29       DOPC     C27      CTL2    -0.180000       12.0110           0
      4422 MEMB     29       DOPC     H7R      HAL2     0.900000E-01   1.00800           0
      4423 MEMB     29       DOPC     H7S      HAL2     0.900000E-01   1.00800           0
      4424 MEMB     29       DOPC     C28      CTL2    -0.180000       12.0110           0
      4425 MEMB     29       DOPC     H8R      HAL2     0.900000E-01   1.00800           0
      4426 MEMB     29       DOPC     H8S      HAL2     0.900000E-01   1.00800           0
      4427 MEMB     29       DOPC     C29      CEL1    -0.150000       12.0110           0
      4428 MEMB     29       DOPC     H9R      HEL1     0.150000       1.00800           0
      4429 MEMB     29       DOPC     C210     CEL1    -0.150000       12.0110           0
      4430 MEMB     29       DOPC     H10R     HEL1     0.150000       1.00800           0
      4431 MEMB     29       DOPC     C211     CTL2    -0.180000       12.0110           0
      4432 MEMB     29       DOPC     H11R     HAL2     0.900000E-01   1.00800           0
      4433 MEMB     29       DOPC     H11S     HAL2     0.900000E-01   1.00800           0
      4434 MEMB     29       DOPC     C212     CTL2    -0.180000       12.0110           0
      4435 MEMB     29       DOPC     H12R     HAL2     0.900000E-01   1.00800           0
      4436 MEMB     29       DOPC     H12S     HAL2     0.900000E-01   1.00800           0
      4437 MEMB     29       DOPC     C213     CTL2    -0.180000       12.0110           0
      4438 MEMB     29       DOPC     H13R     HAL2     0.900000E-01   1.00800           0
      4439 MEMB     29       DOPC     H13S     HAL2     0.900000E-01   1.00800           0
      4440 MEMB     29       DOPC     C214     CTL2    -0.180000       12.0110           0
      4441 MEMB     29       DOPC     H14R     HAL2     0.900000E-01   1.00800           0
      4442 MEMB     29       DOPC     H14S     HAL2     0.900000E-01   1.00800           0
      4443 MEMB     29       DOPC     C215     CTL2    -0.180000       12.0110           0
      4444 MEMB     29       DOPC     H15R     HAL2     0.900000E-01   1.00800           0
      4445 MEMB     29       DOPC     H15S     HAL2     0.900000E-01   1.00800           0
      4446 MEMB     29       DOPC     C216     CTL2    -0.180000       12.0110           0
      4447 MEMB     29       DOPC     H16R     HAL2     0.900000E-01   1.00800           0
      4448 MEMB     29       DOPC     H16S     HAL2     0.900000E-01   1.00800           0
      4449 MEMB     29       DOPC     C217     CTL2    -0.180000       12.0110           0
      4450 MEMB     29       DOPC     H17R     HAL2     0.900000E-01   1.00800           0
      4451 MEMB     29       DOPC     H17S     HAL2     0.900000E-01   1.00800           0
      4452 MEMB     29       DOPC     C218     CTL3    -0.270000       12.0110           0
      4453 MEMB     29       DOPC     H18R     HAL3     0.900000E-01   1.00800           0
      4454 MEMB     29       DOPC     H18S     HAL3     0.900000E-01   1.00800           0
      4455 MEMB     29       DOPC     H18T     HAL3     0.900000E-01   1.00800           0
      4456 MEMB     29       DOPC     C33      CTL2    -0.180000       12.0110           0
      4457 MEMB     29       DOPC     H3X      HAL2     0.900000E-01   1.00800           0
      4458 MEMB     29       DOPC     H3Y      HAL2     0.900000E-01   1.00800           0
      4459 MEMB     29       DOPC     C34      CTL2    -0.180000       12.0110           0
      4460 MEMB     29       DOPC     H4X      HAL2     0.900000E-01   1.00800           0
      4461 MEMB     29       DOPC     H4Y      HAL2     0.900000E-01   1.00800           0
      4462 MEMB     29       DOPC     C35      CTL2    -0.180000       12.0110           0
      4463 MEMB     29       DOPC     H5X      HAL2     0.900000E-01   1.00800           0
      4464 MEMB     29       DOPC     H5Y      HAL2     0.900000E-01   1.00800           0
      4465 MEMB     29       DOPC     C36      CTL2    -0.180000       12.0110           0
      4466 MEMB     29       DOPC     H6X      HAL2     0.900000E-01   1.00800           0
      4467 MEMB     29       DOPC     H6Y      HAL2     0.900000E-01   1.00800           0
      4468 MEMB     29       DOPC     C37      CTL2    -0.180000       12.0110           0
      4469 MEMB     29       DOPC     H7X      HAL2     0.900000E-01   1.00800           0
      4470 MEMB     29       DOPC     H7Y      HAL2     0.900000E-01   1.00800           0
      4471 MEMB     29       DOPC     C38      CTL2    -0.180000       12.0110           0
      4472 MEMB     29       DOPC     H8X      HAL2     0.900000E-01   1.00800           0
      4473 MEMB     29       DOPC     H8Y      HAL2     0.900000E-01   1.00800           0
      4474 MEMB     29       DOPC     C39      CEL1    -0.150000       12.0110           0
      4475 MEMB     29       DOPC     H9X      HEL1     0.150000       1.00800           0
      4476 MEMB     29       DOPC     C310     CEL1    -0.150000       12.0110           0
      4477 MEMB     29       DOPC     H10X     HEL1     0.150000       1.00800           0
      4478 MEMB     29       DOPC     C311     CTL2    -0.180000       12.0110           0
      4479 MEMB     29       DOPC     H11X     HAL2     0.900000E-01   1.00800           0
      4480 MEMB     29       DOPC     H11Y     HAL2     0.900000E-01   1.00800           0
      4481 MEMB     29       DOPC     C312     CTL2    -0.180000       12.0110           0
      4482 MEMB     29       DOPC     H12X     HAL2     0.900000E-01   1.00800           0
      4483 MEMB     29       DOPC     H12Y     HAL2     0.900000E-01   1.00800           0
      4484 MEMB     29       DOPC     C313     CTL2    -0.180000       12.0110           0
      4485 MEMB     29       DOPC     H13X     HAL2     0.900000E-01   1.00800           0
      4486 MEMB     29       DOPC     H13Y     HAL2     0.900000E-01   1.00800           0
      4487 MEMB     29       DOPC     C314     CTL2    -0.180000       12.0110           0
      4488 MEMB     29       DOPC     H14X     HAL2     0.900000E-01   1.00800           0
      4489 MEMB     29       DOPC     H14Y     HAL2     0.900000E-01   1.00800           0
      4490 MEMB     29       DOPC     C315     CTL2    -0.180000       12.0110           0
      4491 MEMB     29       DOPC     H15X     HAL2     0.900000E-01   1.00800           0
      4492 MEMB     29       DOPC     H15Y     HAL2     0.900000E-01   1.00800           0
      4493 MEMB     29       DOPC     C316     CTL2    -0.180000       12.0110           0
      4494 MEMB     29       DOPC     H16X     HAL2     0.900000E-01   1.00800           0
      4495 MEMB     29       DOPC     H16Y     HAL2     0.900000E-01   1.00800           0
      4496 MEMB     29       DOPC     C317     CTL2    -0.180000       12.0110           0
      4497 MEMB     29       DOPC     H17X     HAL2     0.900000E-01   1.00800           0
      4498 MEMB     29       DOPC     H17Y     HAL2     0.900000E-01   1.00800           0
      4499 MEMB     29       DOPC     C318     CTL3    -0.270000       12.0110           0
      4500 MEMB     29       DOPC     H18X     HAL3     0.900000E-01   1.00800           0
      4501 MEMB     29       DOPC     H18Y     HAL3     0.900000E-01   1.00800           0
      4502 MEMB     29       DOPC     H18Z     HAL3     0.900000E-01   1.00800           0
      4503 MEMB     30       DOPC     N        NTL     -0.600000       14.0070           0
      4504 MEMB     30       DOPC     C12      CTL2    -0.100000       12.0110           0
      4505 MEMB     30       DOPC     H12A     HL       0.250000       1.00800           0
      4506 MEMB     30       DOPC     H12B     HL       0.250000       1.00800           0
      4507 MEMB     30       DOPC     C13      CTL5    -0.350000       12.0110           0
      4508 MEMB     30       DOPC     H13A     HL       0.250000       1.00800           0
      4509 MEMB     30       DOPC     H13B     HL       0.250000       1.00800           0
      4510 MEMB     30       DOPC     H13C     HL       0.250000       1.00800           0
      4511 MEMB     30       DOPC     C14      CTL5    -0.350000       12.0110           0
      4512 MEMB     30       DOPC     H14A     HL       0.250000       1.00800           0
      4513 MEMB     30       DOPC     H14B     HL       0.250000       1.00800           0
      4514 MEMB     30       DOPC     H14C     HL       0.250000       1.00800           0
      4515 MEMB     30       DOPC     C15      CTL5    -0.350000       12.0110           0
      4516 MEMB     30       DOPC     H15A     HL       0.250000       1.00800           0
      4517 MEMB     30       DOPC     H15B     HL       0.250000       1.00800           0
      4518 MEMB     30       DOPC     H15C     HL       0.250000       1.00800           0
      4519 MEMB     30       DOPC     C11      CTL2    -0.800000E-01   12.0110           0
      4520 MEMB     30       DOPC     H11A     HAL2     0.900000E-01   1.00800           0
      4521 MEMB     30       DOPC     H11B     HAL2     0.900000E-01   1.00800           0
      4522 MEMB     30       DOPC     P        PL        1.50000       30.9740           0
      4523 MEMB     30       DOPC     O13      O2L     -0.780000       15.9994           0
      4524 MEMB     30       DOPC     O14      O2L     -0.780000       15.9994           0
      4525 MEMB     30       DOPC     O12      OSLP    -0.570000       15.9994           0
      4526 MEMB     30       DOPC     O11      OSLP    -0.570000       15.9994           0
      4527 MEMB     30       DOPC     C1       CTL2    -0.800000E-01   12.0110           0
      4528 MEMB     30       DOPC     HA       HAL2     0.900000E-01   1.00800           0
      4529 MEMB     30       DOPC     HB       HAL2     0.900000E-01   1.00800           0
      4530 MEMB     30       DOPC     C2       CTL1     0.170000       12.0110           0
      4531 MEMB     30       DOPC     HS       HAL1     0.900000E-01   1.00800           0
      4532 MEMB     30       DOPC     O21      OSL     -0.490000       15.9994           0
      4533 MEMB     30       DOPC     C21      CL       0.900000       12.0110           0
      4534 MEMB     30       DOPC     O22      OBL     -0.630000       15.9994           0
      4535 MEMB     30       DOPC     C22      CTL2    -0.220000       12.0110           0
      4536 MEMB     30       DOPC     H2R      HAL2     0.900000E-01   1.00800           0
      4537 MEMB     30       DOPC     H2S      HAL2     0.900000E-01   1.00800           0
      4538 MEMB     30       DOPC     C3       CTL2     0.800000E-01   12.0110           0
      4539 MEMB     30       DOPC     HX       HAL2     0.900000E-01   1.00800           0
      4540 MEMB     30       DOPC     HY       HAL2     0.900000E-01   1.00800           0
      4541 MEMB     30       DOPC     O31      OSL     -0.490000       15.9994           0
      4542 MEMB     30       DOPC     C31      CL       0.900000       12.0110           0
      4543 MEMB     30       DOPC     O32      OBL     -0.630000       15.9994           0
      4544 MEMB     30       DOPC     C32      CTL2    -0.220000       12.0110           0
      4545 MEMB     30       DOPC     H2X      HAL2     0.900000E-01   1.00800           0
      4546 MEMB     30       DOPC     H2Y      HAL2     0.900000E-01   1.00800           0
      4547 MEMB     30       DOPC     C23      CTL2    -0.180000       12.0110           0
      4548 MEMB     30       DOPC     H3R      HAL2     0.900000E-01   1.00800           0
      4549 MEMB     30       DOPC     H3S      HAL2     0.900000E-01   1.00800           0
      4550 MEMB     30       DOPC     C24      CTL2    -0.180000       12.0110           0
      4551 MEMB     30       DOPC     H4R      HAL2     0.900000E-01   1.00800           0
      4552 MEMB     30       DOPC     H4S      HAL2     0.900000E-01   1.00800           0
      4553 MEMB     30       DOPC     C25      CTL2    -0.180000       12.0110           0
      4554 MEMB     30       DOPC     H5R      HAL2     0.900000E-01   1.00800           0
      4555 MEMB     30       DOPC     H5S      HAL2     0.900000E-01   1.00800           0
      4556 MEMB     30       DOPC     C26      CTL2    -0.180000       12.0110           0
      4557 MEMB     30       DOPC     H6R      HAL2     0.900000E-01   1.00800           0
      4558 MEMB     30       DOPC     H6S      HAL2     0.900000E-01   1.00800           0
      4559 MEMB     30       DOPC     C27      CTL2    -0.180000       12.0110           0
      4560 MEMB     30       DOPC     H7R      HAL2     0.900000E-01   1.00800           0
      4561 MEMB     30       DOPC     H7S      HAL2     0.900000E-01   1.00800           0
      4562 MEMB     30       DOPC     C28      CTL2    -0.180000       12.0110           0
      4563 MEMB     30       DOPC     H8R      HAL2     0.900000E-01   1.00800           0
      4564 MEMB     30       DOPC     H8S      HAL2     0.900000E-01   1.00800           0
      4565 MEMB     30       DOPC     C29      CEL1    -0.150000       12.0110           0
      4566 MEMB     30       DOPC     H9R      HEL1     0.150000       1.00800           0
      4567 MEMB     30       DOPC     C210     CEL1    -0.150000       12.0110           0
      4568 MEMB     30       DOPC     H10R     HEL1     0.150000       1.00800           0
      4569 MEMB     30       DOPC     C211     CTL2    -0.180000       12.0110           0
      4570 MEMB     30       DOPC     H11R     HAL2     0.900000E-01   1.00800           0
      4571 MEMB     30       DOPC     H11S     HAL2     0.900000E-01   1.00800           0
      4572 MEMB     30       DOPC     C212     CTL2    -0.180000       12.0110           0
      4573 MEMB     30       DOPC     H12R     HAL2     0.900000E-01   1.00800           0
      4574 MEMB     30       DOPC     H12S     HAL2     0.900000E-01   1.00800           0
      4575 MEMB     30       DOPC     C213     CTL2    -0.180000       12.0110           0
      4576 MEMB     30       DOPC     H13R     HAL2     0.900000E-01   1.00800           0
      4577 MEMB     30       DOPC     H13S     HAL2     0.900000E-01   1.00800           0
      4578 MEMB     30       DOPC     C214     CTL2    -0.180000       12.0110           0
      4579 MEMB     30       DOPC     H14R     HAL2     0.900000E-01   1.00800           0
      4580 MEMB     30       DOPC     H14S     HAL2     0.900000E-01   1.00800           0
      4581 MEMB     30       DOPC     C215     CTL2    -0.180000       12.0110           0
      4582 MEMB     30       DOPC     H15R     HAL2     0.900000E-01   1.00800           0
      4583 MEMB     30       DOPC     H15S     HAL2     0.900000E-01   1.00800           0
      4584 MEMB     30       DOPC     C216     CTL2    -0.180000       12.0110           0
      4585 MEMB     30       DOPC     H16R     HAL2     0.900000E-01   1.00800           0
      4586 MEMB     30       DOPC     H16S     HAL2     0.900000E-01   1.00800           0
      4587 MEMB     30       DOPC     C217     CTL2    -0.180000       12.0110           0
      4588 MEMB     30       DOPC     H17R     HAL2     0.900000E-01   1.00800           0
      4589 MEMB     30       DOPC     H17S     HAL2     0.900000E-01   1.00800           0
      4590 MEMB     30       DOPC     C218     CTL3    -0.270000       12.0110           0
      4591 MEMB     30       DOPC     H18R     HAL3     0.900000E-01   1.00800           0
      4592 MEMB     30       DOPC     H18S     HAL3     0.900000E-01   1.00800           0
      4593 MEMB     30       DOPC     H18T     HAL3     0.900000E-01   1.00800           0
      4594 MEMB     30       DOPC     C33      CTL2    -0.180000       12.0110           0
      4595 MEMB     30       DOPC     H3X      HAL2     0.900000E-01   1.00800           0
      4596 MEMB     30       DOPC     H3Y      HAL2     0.900000E-01   1.00800           0
      4597 MEMB     30       DOPC     C34      CTL2    -0.180000       12.0110           0
      4598 MEMB     30       DOPC     H4X      HAL2     0.900000E-01   1.00800           0
      4599 MEMB     30       DOPC     H4Y      HAL2     0.900000E-01   1.00800           0
      4600 MEMB     30       DOPC     C35      CTL2    -0.180000       12.0110           0
      4601 MEMB     30       DOPC     H5X      HAL2     0.900000E-01   1.00800           0
      4602 MEMB     30       DOPC     H5Y      HAL2     0.900000E-01   1.00800           0
      4603 MEMB     30       DOPC     C36      CTL2    -0.180000       12.0110           0
      4604 MEMB     30       DOPC     H6X      HAL2     0.900000E-01   1.00800           0
      4605 MEMB     30       DOPC     H6Y      HAL2     0.900000E-01   1.00800           0
      4606 MEMB     30       DOPC     C37      CTL2    -0.180000       12.0110           0
      4607 MEMB     30       DOPC     H7X      HAL2     0.900000E-01   1.00800           0
      4608 MEMB     30       DOPC     H7Y      HAL2     0.900000E-01   1.00800           0
      4609 MEMB     30       DOPC     C38      CTL2    -0.180000       12.0110           0
      4610 MEMB     30       DOPC     H8X      HAL2     0.900000E-01   1.00800           0
      4611 MEMB     30       DOPC     H8Y      HAL2     0.900000E-01   1.00800           0
      4612 MEMB     30       DOPC     C39      CEL1    -0.150000       12.0110           0
      4613 MEMB     30       DOPC     H9X      HEL1     0.150000       1.00800           0
      4614 MEMB     30       DOPC     C310     CEL1    -0.150000       12.0110           0
      4615 MEMB     30       DOPC     H10X     HEL1     0.150000       1.00800           0
      4616 MEMB     30       DOPC     C311     CTL2    -0.180000       12.0110           0
      4617 MEMB     30       DOPC     H11X     HAL2     0.900000E-01   1.00800           0
      4618 MEMB     30       DOPC     H11Y     HAL2     0.900000E-01   1.00800           0
      4619 MEMB     30       DOPC     C312     CTL2    -0.180000       12.0110           0
      4620 MEMB     30       DOPC     H12X     HAL2     0.900000E-01   1.00800           0
      4621 MEMB     30       DOPC     H12Y     HAL2     0.900000E-01   1.00800           0
      4622 MEMB     30       DOPC     C313     CTL2    -0.180000       12.0110           0
      4623 MEMB     30       DOPC     H13X     HAL2     0.900000E-01   1.00800           0
      4624 MEMB     30       DOPC     H13Y     HAL2     0.900000E-01   1.00800           0
      4625 MEMB     30       DOPC     C314     CTL2    -0.180000       12.0110           0
      4626 MEMB     30       DOPC     H14X     HAL2     0.900000E-01   1.00800           0
      4627 MEMB     30       DOPC     H14Y     HAL2     0.900000E-01   1.00800           0
      4628 MEMB     30       DOPC     C315     CTL2    -0.180000       12.0110           0
      4629 MEMB     30       DOPC     H15X     HAL2     0.900000E-01   1.00800           0
      4630 MEMB     30       DOPC     H15Y     HAL2     0.900000E-01   1.00800           0
      4631 MEMB     30       DOPC     C316     CTL2    -0.180000       12.0110           0
      4632 MEMB     30       DOPC     H16X     HAL2     0.900000E-01   1.00800           0
      4633 MEMB     30       DOPC     H16Y     HAL2     0.900000E-01   1.00800           0
      4634 MEMB     30       DOPC     C317     CTL2    -0.180000       12.0110           0
      4635 MEMB     30       DOPC     H17X     HAL2     0.900000E-01   1.00800           0
      4636 MEMB     30       DOPC     H17Y     HAL2     0.900000E-01   1.00800           0
      4637 MEMB     30       DOPC     C318     CTL3    -0.270000       12.0110           0
      4638 MEMB     30       DOPC     H18X     HAL3     0.900000E-01   1.00800           0
      4639 MEMB     30       DOPC     H18Y     HAL3     0.900000E-01   1.00800           0
      4640 MEMB     30       DOPC     H18Z     HAL3     0.900000E-01   1.00800           0
      4641 MEMB     31       DOPC     N        NTL     -0.600000       14.0070           0
      4642 MEMB     31       DOPC     C12      CTL2    -0.100000       12.0110           0
      4643 MEMB     31       DOPC     H12A     HL       0.250000       1.00800           0
      4644 MEMB     31       DOPC     H12B     HL       0.250000       1.00800           0
      4645 MEMB     31       DOPC     C13      CTL5    -0.350000       12.0110           0
      4646 MEMB     31       DOPC     H13A     HL       0.250000       1.00800           0
      4647 MEMB     31       DOPC     H13B     HL       0.250000       1.00800           0
      4648 MEMB     31       DOPC     H13C     HL       0.250000       1.00800           0
      4649 MEMB     31       DOPC     C14      CTL5    -0.350000       12.0110           0
      4650 MEMB     31       DOPC     H14A     HL       0.250000       1.00800           0
      4651 MEMB     31       DOPC     H14B     HL       0.250000       1.00800           0
      4652 MEMB     31       DOPC     H14C     HL       0.250000       1.00800           0
      4653 MEMB     31       DOPC     C15      CTL5    -0.350000       12.0110           0
      4654 MEMB     31       DOPC     H15A     HL       0.250000       1.00800           0
      4655 MEMB     31       DOPC     H15B     HL       0.250000       1.00800           0
      4656 MEMB     31       DOPC     H15C     HL       0.250000       1.00800           0
      4657 MEMB     31       DOPC     C11      CTL2    -0.800000E-01   12.0110           0
      4658 MEMB     31       DOPC     H11A     HAL2     0.900000E-01   1.00800           0
      4659 MEMB     31       DOPC     H11B     HAL2     0.900000E-01   1.00800           0
      4660 MEMB     31       DOPC     P        PL        1.50000       30.9740           0
      4661 MEMB     31       DOPC     O13      O2L     -0.780000       15.9994           0
      4662 MEMB     31       DOPC     O14      O2L     -0.780000       15.9994           0
      4663 MEMB     31       DOPC     O12      OSLP    -0.570000       15.9994           0
      4664 MEMB     31       DOPC     O11      OSLP    -0.570000       15.9994           0
      4665 MEMB     31       DOPC     C1       CTL2    -0.800000E-01   12.0110           0
      4666 MEMB     31       DOPC     HA       HAL2     0.900000E-01   1.00800           0
      4667 MEMB     31       DOPC     HB       HAL2     0.900000E-01   1.00800           0
      4668 MEMB     31       DOPC     C2       CTL1     0.170000       12.0110           0
      4669 MEMB     31       DOPC     HS       HAL1     0.900000E-01   1.00800           0
      4670 MEMB     31       DOPC     O21      OSL     -0.490000       15.9994           0
      4671 MEMB     31       DOPC     C21      CL       0.900000       12.0110           0
      4672 MEMB     31       DOPC     O22      OBL     -0.630000       15.9994           0
      4673 MEMB     31       DOPC     C22      CTL2    -0.220000       12.0110           0
      4674 MEMB     31       DOPC     H2R      HAL2     0.900000E-01   1.00800           0
      4675 MEMB     31       DOPC     H2S      HAL2     0.900000E-01   1.00800           0
      4676 MEMB     31       DOPC     C3       CTL2     0.800000E-01   12.0110           0
      4677 MEMB     31       DOPC     HX       HAL2     0.900000E-01   1.00800           0
      4678 MEMB     31       DOPC     HY       HAL2     0.900000E-01   1.00800           0
      4679 MEMB     31       DOPC     O31      OSL     -0.490000       15.9994           0
      4680 MEMB     31       DOPC     C31      CL       0.900000       12.0110           0
      4681 MEMB     31       DOPC     O32      OBL     -0.630000       15.9994           0
      4682 MEMB     31       DOPC     C32      CTL2    -0.220000       12.0110           0
      4683 MEMB     31       DOPC     H2X      HAL2     0.900000E-01   1.00800           0
      4684 MEMB     31       DOPC     H2Y      HAL2     0.900000E-01   1.00800           0
      4685 MEMB     31       DOPC     C23      CTL2    -0.180000       12.0110           0
      4686 MEMB     31       DOPC     H3R      HAL2     0.900000E-01   1.00800           0
      4687 MEMB     31       DOPC     H3S      HAL2     0.900000E-01   1.00800           0
      4688 MEMB     31       DOPC     C24      CTL2    -0.180000       12.0110           0
      4689 MEMB     31       DOPC     H4R      HAL2     0.900000E-01   1.00800           0
      4690 MEMB     31       DOPC     H4S      HAL2     0.900000E-01   1.00800           0
      4691 MEMB     31       DOPC     C25      CTL2    -0.180000       12.0110           0
      4692 MEMB     31       DOPC     H5R      HAL2     0.900000E-01   1.00800           0
      4693 MEMB     31       DOPC     H5S      HAL2     0.900000E-01   1.00800           0
      4694 MEMB     31       DOPC     C26      CTL2    -0.180000       12.0110           0
      4695 MEMB     31       DOPC     H6R      HAL2     0.900000E-01   1.00800           0
      4696 MEMB     31       DOPC     H6S      HAL2     0.900000E-01   1.00800           0
      4697 MEMB     31       DOPC     C27      CTL2    -0.180000       12.0110           0
      4698 MEMB     31       DOPC     H7R      HAL2     0.900000E-01   1.00800           0
      4699 MEMB     31       DOPC     H7S      HAL2     0.900000E-01   1.00800           0
      4700 MEMB     31       DOPC     C28      CTL2    -0.180000       12.0110           0
      4701 MEMB     31       DOPC     H8R      HAL2     0.900000E-01   1.00800           0
      4702 MEMB     31       DOPC     H8S      HAL2     0.900000E-01   1.00800           0
      4703 MEMB     31       DOPC     C29      CEL1    -0.150000       12.0110           0
      4704 MEMB     31       DOPC     H9R      HEL1     0.150000       1.00800           0
      4705 MEMB     31       DOPC     C210     CEL1    -0.150000       12.0110           0
      4706 MEMB     31       DOPC     H10R     HEL1     0.150000       1.00800           0
      4707 MEMB     31       DOPC     C211     CTL2    -0.180000       12.0110           0
      4708 MEMB     31       DOPC     H11R     HAL2     0.900000E-01   1.00800           0
      4709 MEMB     31       DOPC     H11S     HAL2     0.900000E-01   1.00800           0
      4710 MEMB     31       DOPC     C212     CTL2    -0.180000       12.0110           0
      4711 MEMB     31       DOPC     H12R     HAL2     0.900000E-01   1.00800           0
      4712 MEMB     31       DOPC     H12S     HAL2     0.900000E-01   1.00800           0
      4713 MEMB     31       DOPC     C213     CTL2    -0.180000       12.0110           0
      4714 MEMB     31       DOPC     H13R     HAL2     0.900000E-01   1.00800           0
      4715 MEMB     31       DOPC     H13S     HAL2     0.900000E-01   1.00800           0
      4716 MEMB     31       DOPC     C214     CTL2    -0.180000       12.0110           0
      4717 MEMB     31       DOPC     H14R     HAL2     0.900000E-01   1.00800           0
      4718 MEMB     31       DOPC     H14S     HAL2     0.900000E-01   1.00800           0
      4719 MEMB     31       DOPC     C215     CTL2    -0.180000       12.0110           0
      4720 MEMB     31       DOPC     H15R     HAL2     0.900000E-01   1.00800           0
      4721 MEMB     31       DOPC     H15S     HAL2     0.900000E-01   1.00800           0
      4722 MEMB     31       DOPC     C216     CTL2    -0.180000       12.0110           0
      4723 MEMB     31       DOPC     H16R     HAL2     0.900000E-01   1.00800           0
      4724 MEMB     31       DOPC     H16S     HAL2     0.900000E-01   1.00800           0
      4725 MEMB     31       DOPC     C217     CTL2    -0.180000       12.0110           0
      4726 MEMB     31       DOPC     H17R     HAL2     0.900000E-01   1.00800           0
      4727 MEMB     31       DOPC     H17S     HAL2     0.900000E-01   1.00800           0
      4728 MEMB     31       DOPC     C218     CTL3    -0.270000       12.0110           0
      4729 MEMB     31       DOPC     H18R     HAL3     0.900000E-01   1.00800           0
      4730 MEMB     31       DOPC     H18S     HAL3     0.900000E-01   1.00800           0
      4731 MEMB     31       DOPC     H18T     HAL3     0.900000E-01   1.00800           0
      4732 MEMB     31       DOPC     C33      CTL2    -0.180000       12.0110           0
      4733 MEMB     31       DOPC     H3X      HAL2     0.900000E-01   1.00800           0
      4734 MEMB     31       DOPC     H3Y      HAL2     0.900000E-01   1.00800           0
      4735 MEMB     31       DOPC     C34      CTL2    -0.180000       12.0110           0
      4736 MEMB     31       DOPC     H4X      HAL2     0.900000E-01   1.00800           0
      4737 MEMB     31       DOPC     H4Y      HAL2     0.900000E-01   1.00800           0
      4738 MEMB     31       DOPC     C35      CTL2    -0.180000       12.0110           0
      4739 MEMB     31       DOPC     H5X      HAL2     0.900000E-01   1.00800           0
      4740 MEMB     31       DOPC     H5Y      HAL2     0.900000E-01   1.00800           0
      4741 MEMB     31       DOPC     C36      CTL2    -0.180000       12.0110           0
      4742 MEMB     31       DOPC     H6X      HAL2     0.900000E-01   1.00800           0
      4743 MEMB     31       DOPC     H6Y      HAL2     0.900000E-01   1.00800           0
      4744 MEMB     31       DOPC     C37      CTL2    -0.180000       12.0110           0
      4745 MEMB     31       DOPC     H7X      HAL2     0.900000E-01   1.00800           0
      4746 MEMB     31       DOPC     H7Y      HAL2     0.900000E-01   1.00800           0
      4747 MEMB     31       DOPC     C38      CTL2    -0.180000       12.0110           0
      4748 MEMB     31       DOPC     H8X      HAL2     0.900000E-01   1.00800           0
      4749 MEMB     31       DOPC     H8Y      HAL2     0.900000E-01   1.00800           0
      4750 MEMB     31       DOPC     C39      CEL1    -0.150000       12.0110           0
      4751 MEMB     31       DOPC     H9X      HEL1     0.150000       1.00800           0
      4752 MEMB     31       DOPC     C310     CEL1    -0.150000       12.0110           0
      4753 MEMB     31       DOPC     H10X     HEL1     0.150000       1.00800           0
      4754 MEMB     31       DOPC     C311     CTL2    -0.180000       12.0110           0
      4755 MEMB     31       DOPC     H11X     HAL2     0.900000E-01   1.00800           0
      4756 MEMB     31       DOPC     H11Y     HAL2     0.900000E-01   1.00800           0
      4757 MEMB     31       DOPC     C312     CTL2    -0.180000       12.0110           0
      4758 MEMB     31       DOPC     H12X     HAL2     0.900000E-01   1.00800           0
      4759 MEMB     31       DOPC     H12Y     HAL2     0.900000E-01   1.00800           0
      4760 MEMB     31       DOPC     C313     CTL2    -0.180000       12.0110           0
      4761 MEMB     31       DOPC     H13X     HAL2     0.900000E-01   1.00800           0
      4762 MEMB     31       DOPC     H13Y     HAL2     0.900000E-01   1.00800           0
      4763 MEMB     31       DOPC     C314     CTL2    -0.180000       12.0110           0
      4764 MEMB     31       DOPC     H14X     HAL2     0.900000E-01   1.00800           0
      4765 MEMB     31       DOPC     H14Y     HAL2     0.900000E-01   1.00800           0
      4766 MEMB     31       DOPC     C315     CTL2    -0.180000       12.0110           0
      4767 MEMB     31       DOPC     H15X     HAL2     0.900000E-01   1.00800           0
      4768 MEMB     31       DOPC     H15Y     HAL2     0.900000E-01   1.00800           0
      4769 MEMB     31       DOPC     C316     CTL2    -0.180000       12.0110           0
      4770 MEMB     31       DOPC     H16X     HAL2     0.900000E-01   1.00800           0
      4771 MEMB     31       DOPC     H16Y     HAL2     0.900000E-01   1.00800           0
      4772 MEMB     31       DOPC     C317     CTL2    -0.180000       12.0110           0
      4773 MEMB     31       DOPC     H17X     HAL2     0.900000E-01   1.00800           0
      4774 MEMB     31       DOPC     H17Y     HAL2     0.900000E-01   1.00800           0
      4775 MEMB     31       DOPC     C318     CTL3    -0.270000       12.0110           0
      4776 MEMB     31       DOPC     H18X     HAL3     0.900000E-01   1.00800           0
      4777 MEMB     31       DOPC     H18Y     HAL3     0.900000E-01   1.00800           0
      4778 MEMB     31       DOPC     H18Z     HAL3     0.900000E-01   1.00800           0
      4779 MEMB     32       DOPC     N        NTL     -0.600000       14.0070           0
      4780 MEMB     32       DOPC     C12      CTL2    -0.100000       12.0110           0
      4781 MEMB     32       DOPC     H12A     HL       0.250000       1.00800           0
      4782 MEMB     32       DOPC     H12B     HL       0.250000       1.00800           0
      4783 MEMB     32       DOPC     C13      CTL5    -0.350000       12.0110           0
      4784 MEMB     32       DOPC     H13A     HL       0.250000       1.00800           0
      4785 MEMB     32       DOPC     H13B     HL       0.250000       1.00800           0
      4786 MEMB     32       DOPC     H13C     HL       0.250000       1.00800           0
      4787 MEMB     32       DOPC     C14      CTL5    -0.350000       12.0110           0
      4788 MEMB     32       DOPC     H14A     HL       0.250000       1.00800           0
      4789 MEMB     32       DOPC     H14B     HL       0.250000       1.00800           0
      4790 MEMB     32       DOPC     H14C     HL       0.250000       1.00800           0
      4791 MEMB     32       DOPC     C15      CTL5    -0.350000       12.0110           0
      4792 MEMB     32       DOPC     H15A     HL       0.250000       1.00800           0
      4793 MEMB     32       DOPC     H15B     HL       0.250000       1.00800           0
      4794 MEMB     32       DOPC     H15C     HL       0.250000       1.00800           0
      4795 MEMB     32       DOPC     C11      CTL2    -0.800000E-01   12.0110           0
      4796 MEMB     32       DOPC     H11A     HAL2     0.900000E-01   1.00800           0
      4797 MEMB     32       DOPC     H11B     HAL2     0.900000E-01   1.00800           0
      4798 MEMB     32       DOPC     P        PL        1.50000       30.9740           0
      4799 MEMB     32       DOPC     O13      O2L     -0.780000       15.9994           0
      4800 MEMB     32       DOPC     O14      O2L     -0.780000       15.9994           0
      4801 MEMB     32       DOPC     O12      OSLP    -0.570000       15.9994           0
      4802 MEMB     32       DOPC     O11      OSLP    -0.570000       15.9994           0
      4803 MEMB     32       DOPC     C1       CTL2    -0.800000E-01   12.0110           0
      4804 MEMB     32       DOPC     HA       HAL2     0.900000E-01   1.00800           0
      4805 MEMB     32       DOPC     HB       HAL2     0.900000E-01   1.00800           0
      4806 MEMB     32       DOPC     C2       CTL1     0.170000       12.0110           0
      4807 MEMB     32       DOPC     HS       HAL1     0.900000E-01   1.00800           0
      4808 MEMB     32       DOPC     O21      OSL     -0.490000       15.9994           0
      4809 MEMB     32       DOPC     C21      CL       0.900000       12.0110           0
      4810 MEMB     32       DOPC     O22      OBL     -0.630000       15.9994           0
      4811 MEMB     32       DOPC     C22      CTL2    -0.220000       12.0110           0
      4812 MEMB     32       DOPC     H2R      HAL2     0.900000E-01   1.00800           0
      4813 MEMB     32       DOPC     H2S      HAL2     0.900000E-01   1.00800           0
      4814 MEMB     32       DOPC     C3       CTL2     0.800000E-01   12.0110           0
      4815 MEMB     32       DOPC     HX       HAL2     0.900000E-01   1.00800           0
      4816 MEMB     32       DOPC     HY       HAL2     0.900000E-01   1.00800           0
      4817 MEMB     32       DOPC     O31      OSL     -0.490000       15.9994           0
      4818 MEMB     32       DOPC     C31      CL       0.900000       12.0110           0
      4819 MEMB     32       DOPC     O32      OBL     -0.630000       15.9994           0
      4820 MEMB     32       DOPC     C32      CTL2    -0.220000       12.0110           0
      4821 MEMB     32       DOPC     H2X      HAL2     0.900000E-01   1.00800           0
      4822 MEMB     32       DOPC     H2Y      HAL2     0.900000E-01   1.00800           0
      4823 MEMB     32       DOPC     C23      CTL2    -0.180000       12.0110           0
      4824 MEMB     32       DOPC     H3R      HAL2     0.900000E-01   1.00800           0
      4825 MEMB     32       DOPC     H3S      HAL2     0.900000E-01   1.00800           0
      4826 MEMB     32       DOPC     C24      CTL2    -0.180000       12.0110           0
      4827 MEMB     32       DOPC     H4R      HAL2     0.900000E-01   1.00800           0
      4828 MEMB     32       DOPC     H4S      HAL2     0.900000E-01   1.00800           0
      4829 MEMB     32       DOPC     C25      CTL2    -0.180000       12.0110           0
      4830 MEMB     32       DOPC     H5R      HAL2     0.900000E-01   1.00800           0
      4831 MEMB     32       DOPC     H5S      HAL2     0.900000E-01   1.00800           0
      4832 MEMB     32       DOPC     C26      CTL2    -0.180000       12.0110           0
      4833 MEMB     32       DOPC     H6R      HAL2     0.900000E-01   1.00800           0
      4834 MEMB     32       DOPC     H6S      HAL2     0.900000E-01   1.00800           0
      4835 MEMB     32       DOPC     C27      CTL2    -0.180000       12.0110           0
      4836 MEMB     32       DOPC     H7R      HAL2     0.900000E-01   1.00800           0
      4837 MEMB     32       DOPC     H7S      HAL2     0.900000E-01   1.00800           0
      4838 MEMB     32       DOPC     C28      CTL2    -0.180000       12.0110           0
      4839 MEMB     32       DOPC     H8R      HAL2     0.900000E-01   1.00800           0
      4840 MEMB     32       DOPC     H8S      HAL2     0.900000E-01   1.00800           0
      4841 MEMB     32       DOPC     C29      CEL1    -0.150000       12.0110           0
      4842 MEMB     32       DOPC     H9R      HEL1     0.150000       1.00800           0
      4843 MEMB     32       DOPC     C210     CEL1    -0.150000       12.0110           0
      4844 MEMB     32       DOPC     H10R     HEL1     0.150000       1.00800           0
      4845 MEMB     32       DOPC     C211     CTL2    -0.180000       12.0110           0
      4846 MEMB     32       DOPC     H11R     HAL2     0.900000E-01   1.00800           0
      4847 MEMB     32       DOPC     H11S     HAL2     0.900000E-01   1.00800           0
      4848 MEMB     32       DOPC     C212     CTL2    -0.180000       12.0110           0
      4849 MEMB     32       DOPC     H12R     HAL2     0.900000E-01   1.00800           0
      4850 MEMB     32       DOPC     H12S     HAL2     0.900000E-01   1.00800           0
      4851 MEMB     32       DOPC     C213     CTL2    -0.180000       12.0110           0
      4852 MEMB     32       DOPC     H13R     HAL2     0.900000E-01   1.00800           0
      4853 MEMB     32       DOPC     H13S     HAL2     0.900000E-01   1.00800           0
      4854 MEMB     32       DOPC     C214     CTL2    -0.180000       12.0110           0
      4855 MEMB     32       DOPC     H14R     HAL2     0.900000E-01   1.00800           0
      4856 MEMB     32       DOPC     H14S     HAL2     0.900000E-01   1.00800           0
      4857 MEMB     32       DOPC     C215     CTL2    -0.180000       12.0110           0
      4858 MEMB     32       DOPC     H15R     HAL2     0.900000E-01   1.00800           0
      4859 MEMB     32       DOPC     H15S     HAL2     0.900000E-01   1.00800           0
      4860 MEMB     32       DOPC     C216     CTL2    -0.180000       12.0110           0
      4861 MEMB     32       DOPC     H16R     HAL2     0.900000E-01   1.00800           0
      4862 MEMB     32       DOPC     H16S     HAL2     0.900000E-01   1.00800           0
      4863 MEMB     32       DOPC     C217     CTL2    -0.180000       12.0110           0
      4864 MEMB     32       DOPC     H17R     HAL2     0.900000E-01   1.00800           0
      4865 MEMB     32       DOPC     H17S     HAL2     0.900000E-01   1.00800           0
      4866 MEMB     32       DOPC     C218     CTL3    -0.270000       12.0110           0
      4867 MEMB     32       DOPC     H18R     HAL3     0.900000E-01   1.00800           0
      4868 MEMB     32       DOPC     H18S     HAL3     0.900000E-01   1.00800           0
      4869 MEMB     32       DOPC     H18T     HAL3     0.900000E-01   1.00800           0
      4870 MEMB     32       DOPC     C33      CTL2    -0.180000       12.0110           0
      4871 MEMB     32       DOPC     H3X      HAL2     0.900000E-01   1.00800           0
      4872 MEMB     32       DOPC     H3Y      HAL2     0.900000E-01   1.00800           0
      4873 MEMB     32       DOPC     C34      CTL2    -0.180000       12.0110           0
      4874 MEMB     32       DOPC     H4X      HAL2     0.900000E-01   1.00800           0
      4875 MEMB     32       DOPC     H4Y      HAL2     0.900000E-01   1.00800           0
      4876 MEMB     32       DOPC     C35      CTL2    -0.180000       12.0110           0
      4877 MEMB     32       DOPC     H5X      HAL2     0.900000E-01   1.00800           0
      4878 MEMB     32       DOPC     H5Y      HAL2     0.900000E-01   1.00800           0
      4879 MEMB     32       DOPC     C36      CTL2    -0.180000       12.0110           0
      4880 MEMB     32       DOPC     H6X      HAL2     0.900000E-01   1.00800           0
      4881 MEMB     32       DOPC     H6Y      HAL2     0.900000E-01   1.00800           0
      4882 MEMB     32       DOPC     C37      CTL2    -0.180000       12.0110           0
      4883 MEMB     32       DOPC     H7X      HAL2     0.900000E-01   1.00800           0
      4884 MEMB     32       DOPC     H7Y      HAL2     0.900000E-01   1.00800           0
      4885 MEMB     32       DOPC     C38      CTL2    -0.180000       12.0110           0
      4886 MEMB     32       DOPC     H8X      HAL2     0.900000E-01   1.00800           0
      4887 MEMB     32       DOPC     H8Y      HAL2     0.900000E-01   1.00800           0
      4888 MEMB     32       DOPC     C39      CEL1    -0.150000       12.0110           0
      4889 MEMB     32       DOPC     H9X      HEL1     0.150000       1.00800           0
      4890 MEMB     32       DOPC     C310     CEL1    -0.150000       12.0110           0
      4891 MEMB     32       DOPC     H10X     HEL1     0.150000       1.00800           0
      4892 MEMB     32       DOPC     C311     CTL2    -0.180000       12.0110           0
      4893 MEMB     32       DOPC     H11X     HAL2     0.900000E-01   1.00800           0
      4894 MEMB     32       DOPC     H11Y     HAL2     0.900000E-01   1.00800           0
      4895 MEMB     32       DOPC     C312     CTL2    -0.180000       12.0110           0
      4896 MEMB     32       DOPC     H12X     HAL2     0.900000E-01   1.00800           0
      4897 MEMB     32       DOPC     H12Y     HAL2     0.900000E-01   1.00800           0
      4898 MEMB     32       DOPC     C313     CTL2    -0.180000       12.0110           0
      4899 MEMB     32       DOPC     H13X     HAL2     0.900000E-01   1.00800           0
      4900 MEMB     32       DOPC     H13Y     HAL2     0.900000E-01   1.00800           0
      4901 MEMB     32       DOPC     C314     CTL2    -0.180000       12.0110           0
      4902 MEMB     32       DOPC     H14X     HAL2     0.900000E-01   1.00800           0
      4903 MEMB     32       DOPC     H14Y     HAL2     0.900000E-01   1.00800           0
      4904 MEMB     32       DOPC     C315     CTL2    -0.180000       12.0110           0
      4905 MEMB     32       DOPC     H15X     HAL2     0.900000E-01   1.00800           0
      4906 MEMB     32       DOPC     H15Y     HAL2     0.900000E-01   1.00800           0
      4907 MEMB     32       DOPC     C316     CTL2    -0.180000       12.0110           0
      4908 MEMB     32       DOPC     H16X     HAL2     0.900000E-01   1.00800           0
      4909 MEMB     32       DOPC     H16Y     HAL2     0.900000E-01   1.00800           0
      4910 MEMB     32       DOPC     C317     CTL2    -0.180000       12.0110           0
      4911 MEMB     32       DOPC     H17X     HAL2     0.900000E-01   1.00800           0
      4912 MEMB     32       DOPC     H17Y     HAL2     0.900000E-01   1.00800           0
      4913 MEMB     32       DOPC     C318     CTL3    -0.270000       12.0110           0
      4914 MEMB     32       DOPC     H18X     HAL3     0.900000E-01   1.00800           0
      4915 MEMB     32       DOPC     H18Y     HAL3     0.900000E-01   1.00800           0
      4916 MEMB     32       DOPC     H18Z     HAL3     0.900000E-01   1.00800           0
      4917 MEMB     33       DOPC     N        NTL     -0.600000       14.0070           0
      4918 MEMB     33       DOPC     C12      CTL2    -0.100000       12.0110           0
      4919 MEMB     33       DOPC     H12A     HL       0.250000       1.00800           0
      4920 MEMB     33       DOPC     H12B     HL       0.250000       1.00800           0
      4921 MEMB     33       DOPC     C13      CTL5    -0.350000       12.0110           0
      4922 MEMB     33       DOPC     H13A     HL       0.250000       1.00800           0
      4923 MEMB     33       DOPC     H13B     HL       0.250000       1.00800           0
      4924 MEMB     33       DOPC     H13C     HL       0.250000       1.00800           0
      4925 MEMB     33       DOPC     C14      CTL5    -0.350000       12.0110           0
      4926 MEMB     33       DOPC     H14A     HL       0.250000       1.00800           0
      4927 MEMB     33       DOPC     H14B     HL       0.250000       1.00800           0
      4928 MEMB     33       DOPC     H14C     HL       0.250000       1.00800           0
      4929 MEMB     33       DOPC     C15      CTL5    -0.350000       12.0110           0
      4930 MEMB     33       DOPC     H15A     HL       0.250000       1.00800           0
      4931 MEMB     33       DOPC     H15B     HL       0.250000       1.00800           0
      4932 MEMB     33       DOPC     H15C     HL       0.250000       1.00800           0
      4933 MEMB     33       DOPC     C11      CTL2    -0.800000E-01   12.0110           0
      4934 MEMB     33       DOPC     H11A     HAL2     0.900000E-01   1.00800           0
      4935 MEMB     33       DOPC     H11B     HAL2     0.900000E-01   1.00800           0
      4936 MEMB     33       DOPC     P        PL        1.50000       30.9740           0
      4937 MEMB     33       DOPC     O13      O2L     -0.780000       15.9994           0
      4938 MEMB     33       DOPC     O14      O2L     -0.780000       15.9994           0
      4939 MEMB     33       DOPC     O12      OSLP    -0.570000       15.9994           0
      4940 MEMB     33       DOPC     O11      OSLP    -0.570000       15.9994           0
      4941 MEMB     33       DOPC     C1       CTL2    -0.800000E-01   12.0110           0
      4942 MEMB     33       DOPC     HA       HAL2     0.900000E-01   1.00800           0
      4943 MEMB     33       DOPC     HB       HAL2     0.900000E-01   1.00800           0
      4944 MEMB     33       DOPC     C2       CTL1     0.170000       12.0110           0
      4945 MEMB     33       DOPC     HS       HAL1     0.900000E-01   1.00800           0
      4946 MEMB     33       DOPC     O21      OSL     -0.490000       15.9994           0
      4947 MEMB     33       DOPC     C21      CL       0.900000       12.0110           0
      4948 MEMB     33       DOPC     O22      OBL     -0.630000       15.9994           0
      4949 MEMB     33       DOPC     C22      CTL2    -0.220000       12.0110           0
      4950 MEMB     33       DOPC     H2R      HAL2     0.900000E-01   1.00800           0
      4951 MEMB     33       DOPC     H2S      HAL2     0.900000E-01   1.00800           0
      4952 MEMB     33       DOPC     C3       CTL2     0.800000E-01   12.0110           0
      4953 MEMB     33       DOPC     HX       HAL2     0.900000E-01   1.00800           0
      4954 MEMB     33       DOPC     HY       HAL2     0.900000E-01   1.00800           0
      4955 MEMB     33       DOPC     O31      OSL     -0.490000       15.9994           0
      4956 MEMB     33       DOPC     C31      CL       0.900000       12.0110           0
      4957 MEMB     33       DOPC     O32      OBL     -0.630000       15.9994           0
      4958 MEMB     33       DOPC     C32      CTL2    -0.220000       12.0110           0
      4959 MEMB     33       DOPC     H2X      HAL2     0.900000E-01   1.00800           0
      4960 MEMB     33       DOPC     H2Y      HAL2     0.900000E-01   1.00800           0
      4961 MEMB     33       DOPC     C23      CTL2    -0.180000       12.0110           0
      4962 MEMB     33       DOPC     H3R      HAL2     0.900000E-01   1.00800           0
      4963 MEMB     33       DOPC     H3S      HAL2     0.900000E-01   1.00800           0
      4964 MEMB     33       DOPC     C24      CTL2    -0.180000       12.0110           0
      4965 MEMB     33       DOPC     H4R      HAL2     0.900000E-01   1.00800           0
      4966 MEMB     33       DOPC     H4S      HAL2     0.900000E-01   1.00800           0
      4967 MEMB     33       DOPC     C25      CTL2    -0.180000       12.0110           0
      4968 MEMB     33       DOPC     H5R      HAL2     0.900000E-01   1.00800           0
      4969 MEMB     33       DOPC     H5S      HAL2     0.900000E-01   1.00800           0
      4970 MEMB     33       DOPC     C26      CTL2    -0.180000       12.0110           0
      4971 MEMB     33       DOPC     H6R      HAL2     0.900000E-01   1.00800           0
      4972 MEMB     33       DOPC     H6S      HAL2     0.900000E-01   1.00800           0
      4973 MEMB     33       DOPC     C27      CTL2    -0.180000       12.0110           0
      4974 MEMB     33       DOPC     H7R      HAL2     0.900000E-01   1.00800           0
      4975 MEMB     33       DOPC     H7S      HAL2     0.900000E-01   1.00800           0
      4976 MEMB     33       DOPC     C28      CTL2    -0.180000       12.0110           0
      4977 MEMB     33       DOPC     H8R      HAL2     0.900000E-01   1.00800           0
      4978 MEMB     33       DOPC     H8S      HAL2     0.900000E-01   1.00800           0
      4979 MEMB     33       DOPC     C29      CEL1    -0.150000       12.0110           0
      4980 MEMB     33       DOPC     H9R      HEL1     0.150000       1.00800           0
      4981 MEMB     33       DOPC     C210     CEL1    -0.150000       12.0110           0
      4982 MEMB     33       DOPC     H10R     HEL1     0.150000       1.00800           0
      4983 MEMB     33       DOPC     C211     CTL2    -0.180000       12.0110           0
      4984 MEMB     33       DOPC     H11R     HAL2     0.900000E-01   1.00800           0
      4985 MEMB     33       DOPC     H11S     HAL2     0.900000E-01   1.00800           0
      4986 MEMB     33       DOPC     C212     CTL2    -0.180000       12.0110           0
      4987 MEMB     33       DOPC     H12R     HAL2     0.900000E-01   1.00800           0
      4988 MEMB     33       DOPC     H12S     HAL2     0.900000E-01   1.00800           0
      4989 MEMB     33       DOPC     C213     CTL2    -0.180000       12.0110           0
      4990 MEMB     33       DOPC     H13R     HAL2     0.900000E-01   1.00800           0
      4991 MEMB     33       DOPC     H13S     HAL2     0.900000E-01   1.00800           0
      4992 MEMB     33       DOPC     C214     CTL2    -0.180000       12.0110           0
      4993 MEMB     33       DOPC     H14R     HAL2     0.900000E-01   1.00800           0
      4994 MEMB     33       DOPC     H14S     HAL2     0.900000E-01   1.00800           0
      4995 MEMB     33       DOPC     C215     CTL2    -0.180000       12.0110           0
      4996 MEMB     33       DOPC     H15R     HAL2     0.900000E-01   1.00800           0
      4997 MEMB     33       DOPC     H15S     HAL2     0.900000E-01   1.00800           0
      4998 MEMB     33       DOPC     C216     CTL2    -0.180000       12.0110           0
      4999 MEMB     33       DOPC     H16R     HAL2     0.900000E-01   1.00800           0
      5000 MEMB     33       DOPC     H16S     HAL2     0.900000E-01   1.00800           0
      5001 MEMB     33       DOPC     C217     CTL2    -0.180000       12.0110           0
      5002 MEMB     33       DOPC     H17R     HAL2     0.900000E-01   1.00800           0
      5003 MEMB     33       DOPC     H17S     HAL2     0.900000E-01   1.00800           0
      5004 MEMB     33       DOPC     C218     CTL3    -0.270000       12.0110           0
      5005 MEMB     33       DOPC     H18R     HAL3     0.900000E-01   1.00800           0
      5006 MEMB     33       DOPC     H18S     HAL3     0.900000E-01   1.00800           0
      5007 MEMB     33       DOPC     H18T     HAL3     0.900000E-01   1.00800           0
      5008 MEMB     33       DOPC     C33      CTL2    -0.180000       12.0110           0
      5009 MEMB     33       DOPC     H3X      HAL2     0.900000E-01   1.00800           0
      5010 MEMB     33       DOPC     H3Y      HAL2     0.900000E-01   1.00800           0
      5011 MEMB     33       DOPC     C34      CTL2    -0.180000       12.0110           0
      5012 MEMB     33       DOPC     H4X      HAL2     0.900000E-01   1.00800           0
      5013 MEMB     33       DOPC     H4Y      HAL2     0.900000E-01   1.00800           0
      5014 MEMB     33       DOPC     C35      CTL2    -0.180000       12.0110           0
      5015 MEMB     33       DOPC     H5X      HAL2     0.900000E-01   1.00800           0
      5016 MEMB     33       DOPC     H5Y      HAL2     0.900000E-01   1.00800           0
      5017 MEMB     33       DOPC     C36      CTL2    -0.180000       12.0110           0
      5018 MEMB     33       DOPC     H6X      HAL2     0.900000E-01   1.00800           0
      5019 MEMB     33       DOPC     H6Y      HAL2     0.900000E-01   1.00800           0
      5020 MEMB     33       DOPC     C37      CTL2    -0.180000       12.0110           0
      5021 MEMB     33       DOPC     H7X      HAL2     0.900000E-01   1.00800           0
      5022 MEMB     33       DOPC     H7Y      HAL2     0.900000E-01   1.00800           0
      5023 MEMB     33       DOPC     C38      CTL2    -0.180000       12.0110           0
      5024 MEMB     33       DOPC     H8X      HAL2     0.900000E-01   1.00800           0
      5025 MEMB     33       DOPC     H8Y      HAL2     0.900000E-01   1.00800           0
      5026 MEMB     33       DOPC     C39      CEL1    -0.150000       12.0110           0
      5027 MEMB     33       DOPC     H9X      HEL1     0.150000       1.00800           0
      5028 MEMB     33       DOPC     C310     CEL1    -0.150000       12.0110           0
      5029 MEMB     33       DOPC     H10X     HEL1     0.150000       1.00800           0
      5030 MEMB     33       DOPC     C311     CTL2    -0.180000       12.0110           0
      5031 MEMB     33       DOPC     H11X     HAL2     0.900000E-01   1.00800           0
      5032 MEMB     33       DOPC     H11Y     HAL2     0.900000E-01   1.00800           0
      5033 MEMB     33       DOPC     C312     CTL2    -0.180000       12.0110           0
      5034 MEMB     33       DOPC     H12X     HAL2     0.900000E-01   1.00800           0
      5035 MEMB     33       DOPC     H12Y     HAL2     0.900000E-01   1.00800           0
      5036 MEMB     33       DOPC     C313     CTL2    -0.180000       12.0110           0
      5037 MEMB     33       DOPC     H13X     HAL2     0.900000E-01   1.00800           0
      5038 MEMB     33       DOPC     H13Y     HAL2     0.900000E-01   1.00800           0
      5039 MEMB     33       DOPC     C314     CTL2    -0.180000       12.0110           0
      5040 MEMB     33       DOPC     H14X     HAL2     0.900000E-01   1.00800           0
      5041 MEMB     33       DOPC     H14Y     HAL2     0.900000E-01   1.00800           0
      5042 MEMB     33       DOPC     C315     CTL2    -0.180000       12.0110           0
      5043 MEMB     33       DOPC     H15X     HAL2     0.900000E-01   1.00800           0
      5044 MEMB     33       DOPC     H15Y     HAL2     0.900000E-01   1.00800           0
      5045 MEMB     33       DOPC     C316     CTL2    -0.180000       12.0110           0
      5046 MEMB     33       DOPC     H16X     HAL2     0.900000E-01   1.00800           0
      5047 MEMB     33       DOPC     H16Y     HAL2     0.900000E-01   1.00800           0
      5048 MEMB     33       DOPC     C317     CTL2    -0.180000       12.0110           0
      5049 MEMB     33       DOPC     H17X     HAL2     0.900000E-01   1.00800           0
      5050 MEMB     33       DOPC     H17Y     HAL2     0.900000E-01   1.00800           0
      5051 MEMB     33       DOPC     C318     CTL3    -0.270000       12.0110           0
      5052 MEMB     33       DOPC     H18X     HAL3     0.900000E-01   1.00800           0
      5053 MEMB     33       DOPC     H18Y     HAL3     0.900000E-01   1.00800           0
      5054 MEMB     33       DOPC     H18Z     HAL3     0.900000E-01   1.00800           0
      5055 MEMB     34       DOPC     N        NTL     -0.600000       14.0070           0
      5056 MEMB     34       DOPC     C12      CTL2    -0.100000       12.0110           0
      5057 MEMB     34       DOPC     H12A     HL       0.250000       1.00800           0
      5058 MEMB     34       DOPC     H12B     HL       0.250000       1.00800           0
      5059 MEMB     34       DOPC     C13      CTL5    -0.350000       12.0110           0
      5060 MEMB     34       DOPC     H13A     HL       0.250000       1.00800           0
      5061 MEMB     34       DOPC     H13B     HL       0.250000       1.00800           0
      5062 MEMB     34       DOPC     H13C     HL       0.250000       1.00800           0
      5063 MEMB     34       DOPC     C14      CTL5    -0.350000       12.0110           0
      5064 MEMB     34       DOPC     H14A     HL       0.250000       1.00800           0
      5065 MEMB     34       DOPC     H14B     HL       0.250000       1.00800           0
      5066 MEMB     34       DOPC     H14C     HL       0.250000       1.00800           0
      5067 MEMB     34       DOPC     C15      CTL5    -0.350000       12.0110           0
      5068 MEMB     34       DOPC     H15A     HL       0.250000       1.00800           0
      5069 MEMB     34       DOPC     H15B     HL       0.250000       1.00800           0
      5070 MEMB     34       DOPC     H15C     HL       0.250000       1.00800           0
      5071 MEMB     34       DOPC     C11      CTL2    -0.800000E-01   12.0110           0
      5072 MEMB     34       DOPC     H11A     HAL2     0.900000E-01   1.00800           0
      5073 MEMB     34       DOPC     H11B     HAL2     0.900000E-01   1.00800           0
      5074 MEMB     34       DOPC     P        PL        1.50000       30.9740           0
      5075 MEMB     34       DOPC     O13      O2L     -0.780000       15.9994           0
      5076 MEMB     34       DOPC     O14      O2L     -0.780000       15.9994           0
      5077 MEMB     34       DOPC     O12      OSLP    -0.570000       15.9994           0
      5078 MEMB     34       DOPC     O11      OSLP    -0.570000       15.9994           0
      5079 MEMB     34       DOPC     C1       CTL2    -0.800000E-01   12.0110           0
      5080 MEMB     34       DOPC     HA       HAL2     0.900000E-01   1.00800           0
      5081 MEMB     34       DOPC     HB       HAL2     0.900000E-01   1.00800           0
      5082 MEMB     34       DOPC     C2       CTL1     0.170000       12.0110           0
      5083 MEMB     34       DOPC     HS       HAL1     0.900000E-01   1.00800           0
      5084 MEMB     34       DOPC     O21      OSL     -0.490000       15.9994           0
      5085 MEMB     34       DOPC     C21      CL       0.900000       12.0110           0
      5086 MEMB     34       DOPC     O22      OBL     -0.630000       15.9994           0
      5087 MEMB     34       DOPC     C22      CTL2    -0.220000       12.0110           0
      5088 MEMB     34       DOPC     H2R      HAL2     0.900000E-01   1.00800           0
      5089 MEMB     34       DOPC     H2S      HAL2     0.900000E-01   1.00800           0
      5090 MEMB     34       DOPC     C3       CTL2     0.800000E-01   12.0110           0
      5091 MEMB     34       DOPC     HX       HAL2     0.900000E-01   1.00800           0
      5092 MEMB     34       DOPC     HY       HAL2     0.900000E-01   1.00800           0
      5093 MEMB     34       DOPC     O31      OSL     -0.490000       15.9994           0
      5094 MEMB     34       DOPC     C31      CL       0.900000       12.0110           0
      5095 MEMB     34       DOPC     O32      OBL     -0.630000       15.9994           0
      5096 MEMB     34       DOPC     C32      CTL2    -0.220000       12.0110           0
      5097 MEMB     34       DOPC     H2X      HAL2     0.900000E-01   1.00800           0
      5098 MEMB     34       DOPC     H2Y      HAL2     0.900000E-01   1.00800           0
      5099 MEMB     34       DOPC     C23      CTL2    -0.180000       12.0110           0
      5100 MEMB     34       DOPC     H3R      HAL2     0.900000E-01   1.00800           0
      5101 MEMB     34       DOPC     H3S      HAL2     0.900000E-01   1.00800           0
      5102 MEMB     34       DOPC     C24      CTL2    -0.180000       12.0110           0
      5103 MEMB     34       DOPC     H4R      HAL2     0.900000E-01   1.00800           0
      5104 MEMB     34       DOPC     H4S      HAL2     0.900000E-01   1.00800           0
      5105 MEMB     34       DOPC     C25      CTL2    -0.180000       12.0110           0
      5106 MEMB     34       DOPC     H5R      HAL2     0.900000E-01   1.00800           0
      5107 MEMB     34       DOPC     H5S      HAL2     0.900000E-01   1.00800           0
      5108 MEMB     34       DOPC     C26      CTL2    -0.180000       12.0110           0
      5109 MEMB     34       DOPC     H6R      HAL2     0.900000E-01   1.00800           0
      5110 MEMB     34       DOPC     H6S      HAL2     0.900000E-01   1.00800           0
      5111 MEMB     34       DOPC     C27      CTL2    -0.180000       12.0110           0
      5112 MEMB     34       DOPC     H7R      HAL2     0.900000E-01   1.00800           0
      5113 MEMB     34       DOPC     H7S      HAL2     0.900000E-01   1.00800           0
      5114 MEMB     34       DOPC     C28      CTL2    -0.180000       12.0110           0
      5115 MEMB     34       DOPC     H8R      HAL2     0.900000E-01   1.00800           0
      5116 MEMB     34       DOPC     H8S      HAL2     0.900000E-01   1.00800           0
      5117 MEMB     34       DOPC     C29      CEL1    -0.150000       12.0110           0
      5118 MEMB     34       DOPC     H9R      HEL1     0.150000       1.00800           0
      5119 MEMB     34       DOPC     C210     CEL1    -0.150000       12.0110           0
      5120 MEMB     34       DOPC     H10R     HEL1     0.150000       1.00800           0
      5121 MEMB     34       DOPC     C211     CTL2    -0.180000       12.0110           0
      5122 MEMB     34       DOPC     H11R     HAL2     0.900000E-01   1.00800           0
      5123 MEMB     34       DOPC     H11S     HAL2     0.900000E-01   1.00800           0
      5124 MEMB     34       DOPC     C212     CTL2    -0.180000       12.0110           0
      5125 MEMB     34       DOPC     H12R     HAL2     0.900000E-01   1.00800           0
      5126 MEMB     34       DOPC     H12S     HAL2     0.900000E-01   1.00800           0
      5127 MEMB     34       DOPC     C213     CTL2    -0.180000       12.0110           0
      5128 MEMB     34       DOPC     H13R     HAL2     0.900000E-01   1.00800           0
      5129 MEMB     34       DOPC     H13S     HAL2     0.900000E-01   1.00800           0
      5130 MEMB     34       DOPC     C214     CTL2    -0.180000       12.0110           0
      5131 MEMB     34       DOPC     H14R     HAL2     0.900000E-01   1.00800           0
      5132 MEMB     34       DOPC     H14S     HAL2     0.900000E-01   1.00800           0
      5133 MEMB     34       DOPC     C215     CTL2    -0.180000       12.0110           0
      5134 MEMB     34       DOPC     H15R     HAL2     0.900000E-01   1.00800           0
      5135 MEMB     34       DOPC     H15S     HAL2     0.900000E-01   1.00800           0
      5136 MEMB     34       DOPC     C216     CTL2    -0.180000       12.0110           0
      5137 MEMB     34       DOPC     H16R     HAL2     0.900000E-01   1.00800           0
      5138 MEMB     34       DOPC     H16S     HAL2     0.900000E-01   1.00800           0
      5139 MEMB     34       DOPC     C217     CTL2    -0.180000       12.0110           0
      5140 MEMB     34       DOPC     H17R     HAL2     0.900000E-01   1.00800           0
      5141 MEMB     34       DOPC     H17S     HAL2     0.900000E-01   1.00800           0
      5142 MEMB     34       DOPC     C218     CTL3    -0.270000       12.0110           0
      5143 MEMB     34       DOPC     H18R     HAL3     0.900000E-01   1.00800           0
      5144 MEMB     34       DOPC     H18S     HAL3     0.900000E-01   1.00800           0
      5145 MEMB     34       DOPC     H18T     HAL3     0.900000E-01   1.00800           0
      5146 MEMB     34       DOPC     C33      CTL2    -0.180000       12.0110           0
      5147 MEMB     34       DOPC     H3X      HAL2     0.900000E-01   1.00800           0
      5148 MEMB     34       DOPC     H3Y      HAL2     0.900000E-01   1.00800           0
      5149 MEMB     34       DOPC     C34      CTL2    -0.180000       12.0110           0
      5150 MEMB     34       DOPC     H4X      HAL2     0.900000E-01   1.00800           0
      5151 MEMB     34       DOPC     H4Y      HAL2     0.900000E-01   1.00800           0
      5152 MEMB     34       DOPC     C35      CTL2    -0.180000       12.0110           0
      5153 MEMB     34       DOPC     H5X      HAL2     0.900000E-01   1.00800           0
      5154 MEMB     34       DOPC     H5Y      HAL2     0.900000E-01   1.00800           0
      5155 MEMB     34       DOPC     C36      CTL2    -0.180000       12.0110           0
      5156 MEMB     34       DOPC     H6X      HAL2     0.900000E-01   1.00800           0
      5157 MEMB     34       DOPC     H6Y      HAL2     0.900000E-01   1.00800           0
      5158 MEMB     34       DOPC     C37      CTL2    -0.180000       12.0110           0
      5159 MEMB     34       DOPC     H7X      HAL2     0.900000E-01   1.00800           0
      5160 MEMB     34       DOPC     H7Y      HAL2     0.900000E-01   1.00800           0
      5161 MEMB     34       DOPC     C38      CTL2    -0.180000       12.0110           0
      5162 MEMB     34       DOPC     H8X      HAL2     0.900000E-01   1.00800           0
      5163 MEMB     34       DOPC     H8Y      HAL2     0.900000E-01   1.00800           0
      5164 MEMB     34       DOPC     C39      CEL1    -0.150000       12.0110           0
      5165 MEMB     34       DOPC     H9X      HEL1     0.150000       1.00800           0
      5166 MEMB     34       DOPC     C310     CEL1    -0.150000       12.0110           0
      5167 MEMB     34       DOPC     H10X     HEL1     0.150000       1.00800           0
      5168 MEMB     34       DOPC     C311     CTL2    -0.180000       12.0110           0
      5169 MEMB     34       DOPC     H11X     HAL2     0.900000E-01   1.00800           0
      5170 MEMB     34       DOPC     H11Y     HAL2     0.900000E-01   1.00800           0
      5171 MEMB     34       DOPC     C312     CTL2    -0.180000       12.0110           0
      5172 MEMB     34       DOPC     H12X     HAL2     0.900000E-01   1.00800           0
      5173 MEMB     34       DOPC     H12Y     HAL2     0.900000E-01   1.00800           0
      5174 MEMB     34       DOPC     C313     CTL2    -0.180000       12.0110           0
      5175 MEMB     34       DOPC     H13X     HAL2     0.900000E-01   1.00800           0
      5176 MEMB     34       DOPC     H13Y     HAL2     0.900000E-01   1.00800           0
      5177 MEMB     34       DOPC     C314     CTL2    -0.180000       12.0110           0
      5178 MEMB     34       DOPC     H14X     HAL2     0.900000E-01   1.00800           0
      5179 MEMB     34       DOPC     H14Y     HAL2     0.900000E-01   1.00800           0
      5180 MEMB     34       DOPC     C315     CTL2    -0.180000       12.0110           0
      5181 MEMB     34       DOPC     H15X     HAL2     0.900000E-01   1.00800           0
      5182 MEMB     34       DOPC     H15Y     HAL2     0.900000E-01   1.00800           0
      5183 MEMB     34       DOPC     C316     CTL2    -0.180000       12.0110           0
      5184 MEMB     34       DOPC     H16X     HAL2     0.900000E-01   1.00800           0
      5185 MEMB     34       DOPC     H16Y     HAL2     0.900000E-01   1.00800           0
      5186 MEMB     34       DOPC     C317     CTL2    -0.180000       12.0110           0
      5187 MEMB     34       DOPC     H17X     HAL2     0.900000E-01   1.00800           0
      5188 MEMB     34       DOPC     H17Y     HAL2     0.900000E-01   1.00800           0
      5189 MEMB     34       DOPC     C318     CTL3    -0.270000       12.0110           0
      5190 MEMB     34       DOPC     H18X     HAL3     0.900000E-01   1.00800           0
      5191 MEMB     34       DOPC     H18Y     HAL3     0.900000E-01   1.00800           0
      5192 MEMB     34       DOPC     H18Z     HAL3     0.900000E-01   1.00800           0
      5193 MEMB     35       DOPC     N        NTL     -0.600000       14.0070           0
      5194 MEMB     35       DOPC     C12      CTL2    -0.100000       12.0110           0
      5195 MEMB     35       DOPC     H12A     HL       0.250000       1.00800           0
      5196 MEMB     35       DOPC     H12B     HL       0.250000       1.00800           0
      5197 MEMB     35       DOPC     C13      CTL5    -0.350000       12.0110           0
      5198 MEMB     35       DOPC     H13A     HL       0.250000       1.00800           0
      5199 MEMB     35       DOPC     H13B     HL       0.250000       1.00800           0
      5200 MEMB     35       DOPC     H13C     HL       0.250000       1.00800           0
      5201 MEMB     35       DOPC     C14      CTL5    -0.350000       12.0110           0
      5202 MEMB     35       DOPC     H14A     HL       0.250000       1.00800           0
      5203 MEMB     35       DOPC     H14B     HL       0.250000       1.00800           0
      5204 MEMB     35       DOPC     H14C     HL       0.250000       1.00800           0
      5205 MEMB     35       DOPC     C15      CTL5    -0.350000       12.0110           0
      5206 MEMB     35       DOPC     H15A     HL       0.250000       1.00800           0
      5207 MEMB     35       DOPC     H15B     HL       0.250000       1.00800           0
      5208 MEMB     35       DOPC     H15C     HL       0.250000       1.00800           0
      5209 MEMB     35       DOPC     C11      CTL2    -0.800000E-01   12.0110           0
      5210 MEMB     35       DOPC     H11A     HAL2     0.900000E-01   1.00800           0
      5211 MEMB     35       DOPC     H11B     HAL2     0.900000E-01   1.00800           0
      5212 MEMB     35       DOPC     P        PL        1.50000       30.9740           0
      5213 MEMB     35       DOPC     O13      O2L     -0.780000       15.9994           0
      5214 MEMB     35       DOPC     O14      O2L     -0.780000       15.9994           0
      5215 MEMB     35       DOPC     O12      OSLP    -0.570000       15.9994           0
      5216 MEMB     35       DOPC     O11      OSLP    -0.570000       15.9994           0
      5217 MEMB     35       DOPC     C1       CTL2    -0.800000E-01   12.0110           0
      5218 MEMB     35       DOPC     HA       HAL2     0.900000E-01   1.00800           0
      5219 MEMB     35       DOPC     HB       HAL2     0.900000E-01   1.00800           0
      5220 MEMB     35       DOPC     C2       CTL1     0.170000       12.0110           0
      5221 MEMB     35       DOPC     HS       HAL1     0.900000E-01   1.00800           0
      5222 MEMB     35       DOPC     O21      OSL     -0.490000       15.9994           0
      5223 MEMB     35       DOPC     C21      CL       0.900000       12.0110           0
      5224 MEMB     35       DOPC     O22      OBL     -0.630000       15.9994           0
      5225 MEMB     35       DOPC     C22      CTL2    -0.220000       12.0110           0
      5226 MEMB     35       DOPC     H2R      HAL2     0.900000E-01   1.00800           0
      5227 MEMB     35       DOPC     H2S      HAL2     0.900000E-01   1.00800           0
      5228 MEMB     35       DOPC     C3       CTL2     0.800000E-01   12.0110           0
      5229 MEMB     35       DOPC     HX       HAL2     0.900000E-01   1.00800           0
      5230 MEMB     35       DOPC     HY       HAL2     0.900000E-01   1.00800           0
      5231 MEMB     35       DOPC     O31      OSL     -0.490000       15.9994           0
      5232 MEMB     35       DOPC     C31      CL       0.900000       12.0110           0
      5233 MEMB     35       DOPC     O32      OBL     -0.630000       15.9994           0
      5234 MEMB     35       DOPC     C32      CTL2    -0.220000       12.0110           0
      5235 MEMB     35       DOPC     H2X      HAL2     0.900000E-01   1.00800           0
      5236 MEMB     35       DOPC     H2Y      HAL2     0.900000E-01   1.00800           0
      5237 MEMB     35       DOPC     C23      CTL2    -0.180000       12.0110           0
      5238 MEMB     35       DOPC     H3R      HAL2     0.900000E-01   1.00800           0
      5239 MEMB     35       DOPC     H3S      HAL2     0.900000E-01   1.00800           0
      5240 MEMB     35       DOPC     C24      CTL2    -0.180000       12.0110           0
      5241 MEMB     35       DOPC     H4R      HAL2     0.900000E-01   1.00800           0
      5242 MEMB     35       DOPC     H4S      HAL2     0.900000E-01   1.00800           0
      5243 MEMB     35       DOPC     C25      CTL2    -0.180000       12.0110           0
      5244 MEMB     35       DOPC     H5R      HAL2     0.900000E-01   1.00800           0
      5245 MEMB     35       DOPC     H5S      HAL2     0.900000E-01   1.00800           0
      5246 MEMB     35       DOPC     C26      CTL2    -0.180000       12.0110           0
      5247 MEMB     35       DOPC     H6R      HAL2     0.900000E-01   1.00800           0
      5248 MEMB     35       DOPC     H6S      HAL2     0.900000E-01   1.00800           0
      5249 MEMB     35       DOPC     C27      CTL2    -0.180000       12.0110           0
      5250 MEMB     35       DOPC     H7R      HAL2     0.900000E-01   1.00800           0
      5251 MEMB     35       DOPC     H7S      HAL2     0.900000E-01   1.00800           0
      5252 MEMB     35       DOPC     C28      CTL2    -0.180000       12.0110           0
      5253 MEMB     35       DOPC     H8R      HAL2     0.900000E-01   1.00800           0
      5254 MEMB     35       DOPC     H8S      HAL2     0.900000E-01   1.00800           0
      5255 MEMB     35       DOPC     C29      CEL1    -0.150000       12.0110           0
      5256 MEMB     35       DOPC     H9R      HEL1     0.150000       1.00800           0
      5257 MEMB     35       DOPC     C210     CEL1    -0.150000       12.0110           0
      5258 MEMB     35       DOPC     H10R     HEL1     0.150000       1.00800           0
      5259 MEMB     35       DOPC     C211     CTL2    -0.180000       12.0110           0
      5260 MEMB     35       DOPC     H11R     HAL2     0.900000E-01   1.00800           0
      5261 MEMB     35       DOPC     H11S     HAL2     0.900000E-01   1.00800           0
      5262 MEMB     35       DOPC     C212     CTL2    -0.180000       12.0110           0
      5263 MEMB     35       DOPC     H12R     HAL2     0.900000E-01   1.00800           0
      5264 MEMB     35       DOPC     H12S     HAL2     0.900000E-01   1.00800           0
      5265 MEMB     35       DOPC     C213     CTL2    -0.180000       12.0110           0
      5266 MEMB     35       DOPC     H13R     HAL2     0.900000E-01   1.00800           0
      5267 MEMB     35       DOPC     H13S     HAL2     0.900000E-01   1.00800           0
      5268 MEMB     35       DOPC     C214     CTL2    -0.180000       12.0110           0
      5269 MEMB     35       DOPC     H14R     HAL2     0.900000E-01   1.00800           0
      5270 MEMB     35       DOPC     H14S     HAL2     0.900000E-01   1.00800           0
      5271 MEMB     35       DOPC     C215     CTL2    -0.180000       12.0110           0
      5272 MEMB     35       DOPC     H15R     HAL2     0.900000E-01   1.00800           0
      5273 MEMB     35       DOPC     H15S     HAL2     0.900000E-01   1.00800           0
      5274 MEMB     35       DOPC     C216     CTL2    -0.180000       12.0110           0
      5275 MEMB     35       DOPC     H16R     HAL2     0.900000E-01   1.00800           0
      5276 MEMB     35       DOPC     H16S     HAL2     0.900000E-01   1.00800           0
      5277 MEMB     35       DOPC     C217     CTL2    -0.180000       12.0110           0
      5278 MEMB     35       DOPC     H17R     HAL2     0.900000E-01   1.00800           0
      5279 MEMB     35       DOPC     H17S     HAL2     0.900000E-01   1.00800           0
      5280 MEMB     35       DOPC     C218     CTL3    -0.270000       12.0110           0
      5281 MEMB     35       DOPC     H18R     HAL3     0.900000E-01   1.00800           0
      5282 MEMB     35       DOPC     H18S     HAL3     0.900000E-01   1.00800           0
      5283 MEMB     35       DOPC     H18T     HAL3     0.900000E-01   1.00800           0
      5284 MEMB     35       DOPC     C33      CTL2    -0.180000       12.0110           0
      5285 MEMB     35       DOPC     H3X      HAL2     0.900000E-01   1.00800           0
      5286 MEMB     35       DOPC     H3Y      HAL2     0.900000E-01   1.00800           0
      5287 MEMB     35       DOPC     C34      CTL2    -0.180000       12.0110           0
      5288 MEMB     35       DOPC     H4X      HAL2     0.900000E-01   1.00800           0
      5289 MEMB     35       DOPC     H4Y      HAL2     0.900000E-01   1.00800           0
      5290 MEMB     35       DOPC     C35      CTL2    -0.180000       12.0110           0
      5291 MEMB     35       DOPC     H5X      HAL2     0.900000E-01   1.00800           0
      5292 MEMB     35       DOPC     H5Y      HAL2     0.900000E-01   1.00800           0
      5293 MEMB     35       DOPC     C36      CTL2    -0.180000       12.0110           0
      5294 MEMB     35       DOPC     H6X      HAL2     0.900000E-01   1.00800           0
      5295 MEMB     35       DOPC     H6Y      HAL2     0.900000E-01   1.00800           0
      5296 MEMB     35       DOPC     C37      CTL2    -0.180000       12.0110           0
      5297 MEMB     35       DOPC     H7X      HAL2     0.900000E-01   1.00800           0
      5298 MEMB     35       DOPC     H7Y      HAL2     0.900000E-01   1.00800           0
      5299 MEMB     35       DOPC     C38      CTL2    -0.180000       12.0110           0
      5300 MEMB     35       DOPC     H8X      HAL2     0.900000E-01   1.00800           0
      5301 MEMB     35       DOPC     H8Y      HAL2     0.900000E-01   1.00800           0
      5302 MEMB     35       DOPC     C39      CEL1    -0.150000       12.0110           0
      5303 MEMB     35       DOPC     H9X      HEL1     0.150000       1.00800           0
      5304 MEMB     35       DOPC     C310     CEL1    -0.150000       12.0110           0
      5305 MEMB     35       DOPC     H10X     HEL1     0.150000       1.00800           0
      5306 MEMB     35       DOPC     C311     CTL2    -0.180000       12.0110           0
      5307 MEMB     35       DOPC     H11X     HAL2     0.900000E-01   1.00800           0
      5308 MEMB     35       DOPC     H11Y     HAL2     0.900000E-01   1.00800           0
      5309 MEMB     35       DOPC     C312     CTL2    -0.180000       12.0110           0
      5310 MEMB     35       DOPC     H12X     HAL2     0.900000E-01   1.00800           0
      5311 MEMB     35       DOPC     H12Y     HAL2     0.900000E-01   1.00800           0
      5312 MEMB     35       DOPC     C313     CTL2    -0.180000       12.0110           0
      5313 MEMB     35       DOPC     H13X     HAL2     0.900000E-01   1.00800           0
      5314 MEMB     35       DOPC     H13Y     HAL2     0.900000E-01   1.00800           0
      5315 MEMB     35       DOPC     C314     CTL2    -0.180000       12.0110           0
      5316 MEMB     35       DOPC     H14X     HAL2     0.900000E-01   1.00800           0
      5317 MEMB     35       DOPC     H14Y     HAL2     0.900000E-01   1.00800           0
      5318 MEMB     35       DOPC     C315     CTL2    -0.180000       12.0110           0
      5319 MEMB     35       DOPC     H15X     HAL2     0.900000E-01   1.00800           0
      5320 MEMB     35       DOPC     H15Y     HAL2     0.900000E-01   1.00800           0
      5321 MEMB     35       DOPC     C316     CTL2    -0.180000       12.0110           0
      5322 MEMB     35       DOPC     H16X     HAL2     0.900000E-01   1.00800           0
      5323 MEMB     35       DOPC     H16Y     HAL2     0.900000E-01   1.00800           0
      5324 MEMB     35       DOPC     C317     CTL2    -0.180000       12.0110           0
      5325 MEMB     35       DOPC     H17X     HAL2     0.900000E-01   1.00800           0
      5326 MEMB     35       DOPC     H17Y     HAL2     0.900000E-01   1.00800           0
      5327 MEMB     35       DOPC     C318     CTL3    -0.270000       12.0110           0
      5328 MEMB     35       DOPC     H18X     HAL3     0.900000E-01   1.00800           0
      5329 MEMB     35       DOPC     H18Y     HAL3     0.900000E-01   1.00800           0
      5330 MEMB     35       DOPC     H18Z     HAL3     0.900000E-01   1.00800           0
      5331 MEMB     36       DOPC     N        NTL     -0.600000       14.0070           0
      5332 MEMB     36       DOPC     C12      CTL2    -0.100000       12.0110           0
      5333 MEMB     36       DOPC     H12A     HL       0.250000       1.00800           0
      5334 MEMB     36       DOPC     H12B     HL       0.250000       1.00800           0
      5335 MEMB     36       DOPC     C13      CTL5    -0.350000       12.0110           0
      5336 MEMB     36       DOPC     H13A     HL       0.250000       1.00800           0
      5337 MEMB     36       DOPC     H13B     HL       0.250000       1.00800           0
      5338 MEMB     36       DOPC     H13C     HL       0.250000       1.00800           0
      5339 MEMB     36       DOPC     C14      CTL5    -0.350000       12.0110           0
      5340 MEMB     36       DOPC     H14A     HL       0.250000       1.00800           0
      5341 MEMB     36       DOPC     H14B     HL       0.250000       1.00800           0
      5342 MEMB     36       DOPC     H14C     HL       0.250000       1.00800           0
      5343 MEMB     36       DOPC     C15      CTL5    -0.350000       12.0110           0
      5344 MEMB     36       DOPC     H15A     HL       0.250000       1.00800           0
      5345 MEMB     36       DOPC     H15B     HL       0.250000       1.00800           0
      5346 MEMB     36       DOPC     H15C     HL       0.250000       1.00800           0
      5347 MEMB     36       DOPC     C11      CTL2    -0.800000E-01   12.0110           0
      5348 MEMB     36       DOPC     H11A     HAL2     0.900000E-01   1.00800           0
      5349 MEMB     36       DOPC     H11B     HAL2     0.900000E-01   1.00800           0
      5350 MEMB     36       DOPC     P        PL        1.50000       30.9740           0
      5351 MEMB     36       DOPC     O13      O2L     -0.780000       15.9994           0
      5352 MEMB     36       DOPC     O14      O2L     -0.780000       15.9994           0
      5353 MEMB     36       DOPC     O12      OSLP    -0.570000       15.9994           0
      5354 MEMB     36       DOPC     O11      OSLP    -0.570000       15.9994           0
      5355 MEMB     36       DOPC     C1       CTL2    -0.800000E-01   12.0110           0
      5356 MEMB     36       DOPC     HA       HAL2     0.900000E-01   1.00800           0
      5357 MEMB     36       DOPC     HB       HAL2     0.900000E-01   1.00800           0
      5358 MEMB     36       DOPC     C2       CTL1     0.170000       12.0110           0
      5359 MEMB     36       DOPC     HS       HAL1     0.900000E-01   1.00800           0
      5360 MEMB     36       DOPC     O21      OSL     -0.490000       15.9994           0
      5361 MEMB     36       DOPC     C21      CL       0.900000       12.0110           0
      5362 MEMB     36       DOPC     O22      OBL     -0.630000       15.9994           0
      5363 MEMB     36       DOPC     C22      CTL2    -0.220000       12.0110           0
      5364 MEMB     36       DOPC     H2R      HAL2     0.900000E-01   1.00800           0
      5365 MEMB     36       DOPC     H2S      HAL2     0.900000E-01   1.00800           0
      5366 MEMB     36       DOPC     C3       CTL2     0.800000E-01   12.0110           0
      5367 MEMB     36       DOPC     HX       HAL2     0.900000E-01   1.00800           0
      5368 MEMB     36       DOPC     HY       HAL2     0.900000E-01   1.00800           0
      5369 MEMB     36       DOPC     O31      OSL     -0.490000       15.9994           0
      5370 MEMB     36       DOPC     C31      CL       0.900000       12.0110           0
      5371 MEMB     36       DOPC     O32      OBL     -0.630000       15.9994           0
      5372 MEMB     36       DOPC     C32      CTL2    -0.220000       12.0110           0
      5373 MEMB     36       DOPC     H2X      HAL2     0.900000E-01   1.00800           0
      5374 MEMB     36       DOPC     H2Y      HAL2     0.900000E-01   1.00800           0
      5375 MEMB     36       DOPC     C23      CTL2    -0.180000       12.0110           0
      5376 MEMB     36       DOPC     H3R      HAL2     0.900000E-01   1.00800           0
      5377 MEMB     36       DOPC     H3S      HAL2     0.900000E-01   1.00800           0
      5378 MEMB     36       DOPC     C24      CTL2    -0.180000       12.0110           0
      5379 MEMB     36       DOPC     H4R      HAL2     0.900000E-01   1.00800           0
      5380 MEMB     36       DOPC     H4S      HAL2     0.900000E-01   1.00800           0
      5381 MEMB     36       DOPC     C25      CTL2    -0.180000       12.0110           0
      5382 MEMB     36       DOPC     H5R      HAL2     0.900000E-01   1.00800           0
      5383 MEMB     36       DOPC     H5S      HAL2     0.900000E-01   1.00800           0
      5384 MEMB     36       DOPC     C26      CTL2    -0.180000       12.0110           0
      5385 MEMB     36       DOPC     H6R      HAL2     0.900000E-01   1.00800           0
      5386 MEMB     36       DOPC     H6S      HAL2     0.900000E-01   1.00800           0
      5387 MEMB     36       DOPC     C27      CTL2    -0.180000       12.0110           0
      5388 MEMB     36       DOPC     H7R      HAL2     0.900000E-01   1.00800           0
      5389 MEMB     36       DOPC     H7S      HAL2     0.900000E-01   1.00800           0
      5390 MEMB     36       DOPC     C28      CTL2    -0.180000       12.0110           0
      5391 MEMB     36       DOPC     H8R      HAL2     0.900000E-01   1.00800           0
      5392 MEMB     36       DOPC     H8S      HAL2     0.900000E-01   1.00800           0
      5393 MEMB     36       DOPC     C29      CEL1    -0.150000       12.0110           0
      5394 MEMB     36       DOPC     H9R      HEL1     0.150000       1.00800           0
      5395 MEMB     36       DOPC     C210     CEL1    -0.150000       12.0110           0
      5396 MEMB     36       DOPC     H10R     HEL1     0.150000       1.00800           0
      5397 MEMB     36       DOPC     C211     CTL2    -0.180000       12.0110           0
      5398 MEMB     36       DOPC     H11R     HAL2     0.900000E-01   1.00800           0
      5399 MEMB     36       DOPC     H11S     HAL2     0.900000E-01   1.00800           0
      5400 MEMB     36       DOPC     C212     CTL2    -0.180000       12.0110           0
      5401 MEMB     36       DOPC     H12R     HAL2     0.900000E-01   1.00800           0
      5402 MEMB     36       DOPC     H12S     HAL2     0.900000E-01   1.00800           0
      5403 MEMB     36       DOPC     C213     CTL2    -0.180000       12.0110           0
      5404 MEMB     36       DOPC     H13R     HAL2     0.900000E-01   1.00800           0
      5405 MEMB     36       DOPC     H13S     HAL2     0.900000E-01   1.00800           0
      5406 MEMB     36       DOPC     C214     CTL2    -0.180000       12.0110           0
      5407 MEMB     36       DOPC     H14R     HAL2     0.900000E-01   1.00800           0
      5408 MEMB     36       DOPC     H14S     HAL2     0.900000E-01   1.00800           0
      5409 MEMB     36       DOPC     C215     CTL2    -0.180000       12.0110           0
      5410 MEMB     36       DOPC     H15R     HAL2     0.900000E-01   1.00800           0
      5411 MEMB     36       DOPC     H15S     HAL2     0.900000E-01   1.00800           0
      5412 MEMB     36       DOPC     C216     CTL2    -0.180000       12.0110           0
      5413 MEMB     36       DOPC     H16R     HAL2     0.900000E-01   1.00800           0
      5414 MEMB     36       DOPC     H16S     HAL2     0.900000E-01   1.00800           0
      5415 MEMB     36       DOPC     C217     CTL2    -0.180000       12.0110           0
      5416 MEMB     36       DOPC     H17R     HAL2     0.900000E-01   1.00800           0
      5417 MEMB     36       DOPC     H17S     HAL2     0.900000E-01   1.00800           0
      5418 MEMB     36       DOPC     C218     CTL3    -0.270000       12.0110           0
      5419 MEMB     36       DOPC     H18R     HAL3     0.900000E-01   1.00800           0
      5420 MEMB     36       DOPC     H18S     HAL3     0.900000E-01   1.00800           0
      5421 MEMB     36       DOPC     H18T     HAL3     0.900000E-01   1.00800           0
      5422 MEMB     36       DOPC     C33      CTL2    -0.180000       12.0110           0
      5423 MEMB     36       DOPC     H3X      HAL2     0.900000E-01   1.00800           0
      5424 MEMB     36       DOPC     H3Y      HAL2     0.900000E-01   1.00800           0
      5425 MEMB     36       DOPC     C34      CTL2    -0.180000       12.0110           0
      5426 MEMB     36       DOPC     H4X      HAL2     0.900000E-01   1.00800           0
      5427 MEMB     36       DOPC     H4Y      HAL2     0.900000E-01   1.00800           0
      5428 MEMB     36       DOPC     C35      CTL2    -0.180000       12.0110           0
      5429 MEMB     36       DOPC     H5X      HAL2     0.900000E-01   1.00800           0
      5430 MEMB     36       DOPC     H5Y      HAL2     0.900000E-01   1.00800           0
      5431 MEMB     36       DOPC     C36      CTL2    -0.180000       12.0110           0
      5432 MEMB     36       DOPC     H6X      HAL2     0.900000E-01   1.00800           0
      5433 MEMB     36       DOPC     H6Y      HAL2     0.900000E-01   1.00800           0
      5434 MEMB     36       DOPC     C37      CTL2    -0.180000       12.0110           0
      5435 MEMB     36       DOPC     H7X      HAL2     0.900000E-01   1.00800           0
      5436 MEMB     36       DOPC     H7Y      HAL2     0.900000E-01   1.00800           0
      5437 MEMB     36       DOPC     C38      CTL2    -0.180000       12.0110           0
      5438 MEMB     36       DOPC     H8X      HAL2     0.900000E-01   1.00800           0
      5439 MEMB     36       DOPC     H8Y      HAL2     0.900000E-01   1.00800           0
      5440 MEMB     36       DOPC     C39      CEL1    -0.150000       12.0110           0
      5441 MEMB     36       DOPC     H9X      HEL1     0.150000       1.00800           0
      5442 MEMB     36       DOPC     C310     CEL1    -0.150000       12.0110           0
      5443 MEMB     36       DOPC     H10X     HEL1     0.150000       1.00800           0
      5444 MEMB     36       DOPC     C311     CTL2    -0.180000       12.0110           0
      5445 MEMB     36       DOPC     H11X     HAL2     0.900000E-01   1.00800           0
      5446 MEMB     36       DOPC     H11Y     HAL2     0.900000E-01   1.00800           0
      5447 MEMB     36       DOPC     C312     CTL2    -0.180000       12.0110           0
      5448 MEMB     36       DOPC     H12X     HAL2     0.900000E-01   1.00800           0
      5449 MEMB     36       DOPC     H12Y     HAL2     0.900000E-01   1.00800           0
      5450 MEMB     36       DOPC     C313     CTL2    -0.180000       12.0110           0
      5451 MEMB     36       DOPC     H13X     HAL2     0.900000E-01   1.00800           0
      5452 MEMB     36       DOPC     H13Y     HAL2     0.900000E-01   1.00800           0
      5453 MEMB     36       DOPC     C314     CTL2    -0.180000       12.0110           0
      5454 MEMB     36       DOPC     H14X     HAL2     0.900000E-01   1.00800           0
      5455 MEMB     36       DOPC     H14Y     HAL2     0.900000E-01   1.00800           0
      5456 MEMB     36       DOPC     C315     CTL2    -0.180000       12.0110           0
      5457 MEMB     36       DOPC     H15X     HAL2     0.900000E-01   1.00800           0
      5458 MEMB     36       DOPC     H15Y     HAL2     0.900000E-01   1.00800           0
      5459 MEMB     36       DOPC     C316     CTL2    -0.180000       12.0110           0
      5460 MEMB     36       DOPC     H16X     HAL2     0.900000E-01   1.00800           0
      5461 MEMB     36       DOPC     H16Y     HAL2     0.900000E-01   1.00800           0
      5462 MEMB     36       DOPC     C317     CTL2    -0.180000       12.0110           0
      5463 MEMB     36       DOPC     H17X     HAL2     0.900000E-01   1.00800           0
      5464 MEMB     36       DOPC     H17Y     HAL2     0.900000E-01   1.00800           0
      5465 MEMB     36       DOPC     C318     CTL3    -0.270000       12.0110           0
      5466 MEMB     36       DOPC     H18X     HAL3     0.900000E-01   1.00800           0
      5467 MEMB     36       DOPC     H18Y     HAL3     0.900000E-01   1.00800           0
      5468 MEMB     36       DOPC     H18Z     HAL3     0.900000E-01   1.00800           0
      5469 MEMB     37       DOPC     N        NTL     -0.600000       14.0070           0
      5470 MEMB     37       DOPC     C12      CTL2    -0.100000       12.0110           0
      5471 MEMB     37       DOPC     H12A     HL       0.250000       1.00800           0
      5472 MEMB     37       DOPC     H12B     HL       0.250000       1.00800           0
      5473 MEMB     37       DOPC     C13      CTL5    -0.350000       12.0110           0
      5474 MEMB     37       DOPC     H13A     HL       0.250000       1.00800           0
      5475 MEMB     37       DOPC     H13B     HL       0.250000       1.00800           0
      5476 MEMB     37       DOPC     H13C     HL       0.250000       1.00800           0
      5477 MEMB     37       DOPC     C14      CTL5    -0.350000       12.0110           0
      5478 MEMB     37       DOPC     H14A     HL       0.250000       1.00800           0
      5479 MEMB     37       DOPC     H14B     HL       0.250000       1.00800           0
      5480 MEMB     37       DOPC     H14C     HL       0.250000       1.00800           0
      5481 MEMB     37       DOPC     C15      CTL5    -0.350000       12.0110           0
      5482 MEMB     37       DOPC     H15A     HL       0.250000       1.00800           0
      5483 MEMB     37       DOPC     H15B     HL       0.250000       1.00800           0
      5484 MEMB     37       DOPC     H15C     HL       0.250000       1.00800           0
      5485 MEMB     37       DOPC     C11      CTL2    -0.800000E-01   12.0110           0
      5486 MEMB     37       DOPC     H11A     HAL2     0.900000E-01   1.00800           0
      5487 MEMB     37       DOPC     H11B     HAL2     0.900000E-01   1.00800           0
      5488 MEMB     37       DOPC     P        PL        1.50000       30.9740           0
      5489 MEMB     37       DOPC     O13      O2L     -0.780000       15.9994           0
      5490 MEMB     37       DOPC     O14      O2L     -0.780000       15.9994           0
      5491 MEMB     37       DOPC     O12      OSLP    -0.570000       15.9994           0
      5492 MEMB     37       DOPC     O11      OSLP    -0.570000       15.9994           0
      5493 MEMB     37       DOPC     C1       CTL2    -0.800000E-01   12.0110           0
      5494 MEMB     37       DOPC     HA       HAL2     0.900000E-01   1.00800           0
      5495 MEMB     37       DOPC     HB       HAL2     0.900000E-01   1.00800           0
      5496 MEMB     37       DOPC     C2       CTL1     0.170000       12.0110           0
      5497 MEMB     37       DOPC     HS       HAL1     0.900000E-01   1.00800           0
      5498 MEMB     37       DOPC     O21      OSL     -0.490000       15.9994           0
      5499 MEMB     37       DOPC     C21      CL       0.900000       12.0110           0
      5500 MEMB     37       DOPC     O22      OBL     -0.630000       15.9994           0
      5501 MEMB     37       DOPC     C22      CTL2    -0.220000       12.0110           0
      5502 MEMB     37       DOPC     H2R      HAL2     0.900000E-01   1.00800           0
      5503 MEMB     37       DOPC     H2S      HAL2     0.900000E-01   1.00800           0
      5504 MEMB     37       DOPC     C3       CTL2     0.800000E-01   12.0110           0
      5505 MEMB     37       DOPC     HX       HAL2     0.900000E-01   1.00800           0
      5506 MEMB     37       DOPC     HY       HAL2     0.900000E-01   1.00800           0
      5507 MEMB     37       DOPC     O31      OSL     -0.490000       15.9994           0
      5508 MEMB     37       DOPC     C31      CL       0.900000       12.0110           0
      5509 MEMB     37       DOPC     O32      OBL     -0.630000       15.9994           0
      5510 MEMB     37       DOPC     C32      CTL2    -0.220000       12.0110           0
      5511 MEMB     37       DOPC     H2X      HAL2     0.900000E-01   1.00800           0
      5512 MEMB     37       DOPC     H2Y      HAL2     0.900000E-01   1.00800           0
      5513 MEMB     37       DOPC     C23      CTL2    -0.180000       12.0110           0
      5514 MEMB     37       DOPC     H3R      HAL2     0.900000E-01   1.00800           0
      5515 MEMB     37       DOPC     H3S      HAL2     0.900000E-01   1.00800           0
      5516 MEMB     37       DOPC     C24      CTL2    -0.180000       12.0110           0
      5517 MEMB     37       DOPC     H4R      HAL2     0.900000E-01   1.00800           0
      5518 MEMB     37       DOPC     H4S      HAL2     0.900000E-01   1.00800           0
      5519 MEMB     37       DOPC     C25      CTL2    -0.180000       12.0110           0
      5520 MEMB     37       DOPC     H5R      HAL2     0.900000E-01   1.00800           0
      5521 MEMB     37       DOPC     H5S      HAL2     0.900000E-01   1.00800           0
      5522 MEMB     37       DOPC     C26      CTL2    -0.180000       12.0110           0
      5523 MEMB     37       DOPC     H6R      HAL2     0.900000E-01   1.00800           0
      5524 MEMB     37       DOPC     H6S      HAL2     0.900000E-01   1.00800           0
      5525 MEMB     37       DOPC     C27      CTL2    -0.180000       12.0110           0
      5526 MEMB     37       DOPC     H7R      HAL2     0.900000E-01   1.00800           0
      5527 MEMB     37       DOPC     H7S      HAL2     0.900000E-01   1.00800           0
      5528 MEMB     37       DOPC     C28      CTL2    -0.180000       12.0110           0
      5529 MEMB     37       DOPC     H8R      HAL2     0.900000E-01   1.00800           0
      5530 MEMB     37       DOPC     H8S      HAL2     0.900000E-01   1.00800           0
      5531 MEMB     37       DOPC     C29      CEL1    -0.150000       12.0110           0
      5532 MEMB     37       DOPC     H9R      HEL1     0.150000       1.00800           0
      5533 MEMB     37       DOPC     C210     CEL1    -0.150000       12.0110           0
      5534 MEMB     37       DOPC     H10R     HEL1     0.150000       1.00800           0
      5535 MEMB     37       DOPC     C211     CTL2    -0.180000       12.0110           0
      5536 MEMB     37       DOPC     H11R     HAL2     0.900000E-01   1.00800           0
      5537 MEMB     37       DOPC     H11S     HAL2     0.900000E-01   1.00800           0
      5538 MEMB     37       DOPC     C212     CTL2    -0.180000       12.0110           0
      5539 MEMB     37       DOPC     H12R     HAL2     0.900000E-01   1.00800           0
      5540 MEMB     37       DOPC     H12S     HAL2     0.900000E-01   1.00800           0
      5541 MEMB     37       DOPC     C213     CTL2    -0.180000       12.0110           0
      5542 MEMB     37       DOPC     H13R     HAL2     0.900000E-01   1.00800           0
      5543 MEMB     37       DOPC     H13S     HAL2     0.900000E-01   1.00800           0
      5544 MEMB     37       DOPC     C214     CTL2    -0.180000       12.0110           0
      5545 MEMB     37       DOPC     H14R     HAL2     0.900000E-01   1.00800           0
      5546 MEMB     37       DOPC     H14S     HAL2     0.900000E-01   1.00800           0
      5547 MEMB     37       DOPC     C215     CTL2    -0.180000       12.0110           0
      5548 MEMB     37       DOPC     H15R     HAL2     0.900000E-01   1.00800           0
      5549 MEMB     37       DOPC     H15S     HAL2     0.900000E-01   1.00800           0
      5550 MEMB     37       DOPC     C216     CTL2    -0.180000       12.0110           0
      5551 MEMB     37       DOPC     H16R     HAL2     0.900000E-01   1.00800           0
      5552 MEMB     37       DOPC     H16S     HAL2     0.900000E-01   1.00800           0
      5553 MEMB     37       DOPC     C217     CTL2    -0.180000       12.0110           0
      5554 MEMB     37       DOPC     H17R     HAL2     0.900000E-01   1.00800           0
      5555 MEMB     37       DOPC     H17S     HAL2     0.900000E-01   1.00800           0
      5556 MEMB     37       DOPC     C218     CTL3    -0.270000       12.0110           0
      5557 MEMB     37       DOPC     H18R     HAL3     0.900000E-01   1.00800           0
      5558 MEMB     37       DOPC     H18S     HAL3     0.900000E-01   1.00800           0
      5559 MEMB     37       DOPC     H18T     HAL3     0.900000E-01   1.00800           0
      5560 MEMB     37       DOPC     C33      CTL2    -0.180000       12.0110           0
      5561 MEMB     37       DOPC     H3X      HAL2     0.900000E-01   1.00800           0
      5562 MEMB     37       DOPC     H3Y      HAL2     0.900000E-01   1.00800           0
      5563 MEMB     37       DOPC     C34      CTL2    -0.180000       12.0110           0
      5564 MEMB     37       DOPC     H4X      HAL2     0.900000E-01   1.00800           0
      5565 MEMB     37       DOPC     H4Y      HAL2     0.900000E-01   1.00800           0
      5566 MEMB     37       DOPC     C35      CTL2    -0.180000       12.0110           0
      5567 MEMB     37       DOPC     H5X      HAL2     0.900000E-01   1.00800           0
      5568 MEMB     37       DOPC     H5Y      HAL2     0.900000E-01   1.00800           0
      5569 MEMB     37       DOPC     C36      CTL2    -0.180000       12.0110           0
      5570 MEMB     37       DOPC     H6X      HAL2     0.900000E-01   1.00800           0
      5571 MEMB     37       DOPC     H6Y      HAL2     0.900000E-01   1.00800           0
      5572 MEMB     37       DOPC     C37      CTL2    -0.180000       12.0110           0
      5573 MEMB     37       DOPC     H7X      HAL2     0.900000E-01   1.00800           0
      5574 MEMB     37       DOPC     H7Y      HAL2     0.900000E-01   1.00800           0
      5575 MEMB     37       DOPC     C38      CTL2    -0.180000       12.0110           0
      5576 MEMB     37       DOPC     H8X      HAL2     0.900000E-01   1.00800           0
      5577 MEMB     37       DOPC     H8Y      HAL2     0.900000E-01   1.00800           0
      5578 MEMB     37       DOPC     C39      CEL1    -0.150000       12.0110           0
      5579 MEMB     37       DOPC     H9X      HEL1     0.150000       1.00800           0
      5580 MEMB     37       DOPC     C310     CEL1    -0.150000       12.0110           0
      5581 MEMB     37       DOPC     H10X     HEL1     0.150000       1.00800           0
      5582 MEMB     37       DOPC     C311     CTL2    -0.180000       12.0110           0
      5583 MEMB     37       DOPC     H11X     HAL2     0.900000E-01   1.00800           0
      5584 MEMB     37       DOPC     H11Y     HAL2     0.900000E-01   1.00800           0
      5585 MEMB     37       DOPC     C312     CTL2    -0.180000       12.0110           0
      5586 MEMB     37       DOPC     H12X     HAL2     0.900000E-01   1.00800           0
      5587 MEMB     37       DOPC     H12Y     HAL2     0.900000E-01   1.00800           0
      5588 MEMB     37       DOPC     C313     CTL2    -0.180000       12.0110           0
      5589 MEMB     37       DOPC     H13X     HAL2     0.900000E-01   1.00800           0
      5590 MEMB     37       DOPC     H13Y     HAL2     0.900000E-01   1.00800           0
      5591 MEMB     37       DOPC     C314     CTL2    -0.180000       12.0110           0
      5592 MEMB     37       DOPC     H14X     HAL2     0.900000E-01   1.00800           0
      5593 MEMB     37       DOPC     H14Y     HAL2     0.900000E-01   1.00800           0
      5594 MEMB     37       DOPC     C315     CTL2    -0.180000       12.0110           0
      5595 MEMB     37       DOPC     H15X     HAL2     0.900000E-01   1.00800           0
      5596 MEMB     37       DOPC     H15Y     HAL2     0.900000E-01   1.00800           0
      5597 MEMB     37       DOPC     C316     CTL2    -0.180000       12.0110           0
      5598 MEMB     37       DOPC     H16X     HAL2     0.900000E-01   1.00800           0
      5599 MEMB     37       DOPC     H16Y     HAL2     0.900000E-01   1.00800           0
      5600 MEMB     37       DOPC     C317     CTL2    -0.180000       12.0110           0
      5601 MEMB     37       DOPC     H17X     HAL2     0.900000E-01   1.00800           0
      5602 MEMB     37       DOPC     H17Y     HAL2     0.900000E-01   1.00800           0
      5603 MEMB     37       DOPC     C318     CTL3    -0.270000       12.0110           0
      5604 MEMB     37       DOPC     H18X     HAL3     0.900000E-01   1.00800           0
      5605 MEMB     37       DOPC     H18Y     HAL3     0.900000E-01   1.00800           0
      5606 MEMB     37       DOPC     H18Z     HAL3     0.900000E-01   1.00800           0
      5607 MEMB     38       DOPC     N        NTL     -0.600000       14.0070           0
      5608 MEMB     38       DOPC     C12      CTL2    -0.100000       12.0110           0
      5609 MEMB     38       DOPC     H12A     HL       0.250000       1.00800           0
      5610 MEMB     38       DOPC     H12B     HL       0.250000       1.00800           0
      5611 MEMB     38       DOPC     C13      CTL5    -0.350000       12.0110           0
      5612 MEMB     38       DOPC     H13A     HL       0.250000       1.00800           0
      5613 MEMB     38       DOPC     H13B     HL       0.250000       1.00800           0
      5614 MEMB     38       DOPC     H13C     HL       0.250000       1.00800           0
      5615 MEMB     38       DOPC     C14      CTL5    -0.350000       12.0110           0
      5616 MEMB     38       DOPC     H14A     HL       0.250000       1.00800           0
      5617 MEMB     38       DOPC     H14B     HL       0.250000       1.00800           0
      5618 MEMB     38       DOPC     H14C     HL       0.250000       1.00800           0
      5619 MEMB     38       DOPC     C15      CTL5    -0.350000       12.0110           0
      5620 MEMB     38       DOPC     H15A     HL       0.250000       1.00800           0
      5621 MEMB     38       DOPC     H15B     HL       0.250000       1.00800           0
      5622 MEMB     38       DOPC     H15C     HL       0.250000       1.00800           0
      5623 MEMB     38       DOPC     C11      CTL2    -0.800000E-01   12.0110           0
      5624 MEMB     38       DOPC     H11A     HAL2     0.900000E-01   1.00800           0
      5625 MEMB     38       DOPC     H11B     HAL2     0.900000E-01   1.00800           0
      5626 MEMB     38       DOPC     P        PL        1.50000       30.9740           0
      5627 MEMB     38       DOPC     O13      O2L     -0.780000       15.9994           0
      5628 MEMB     38       DOPC     O14      O2L     -0.780000       15.9994           0
      5629 MEMB     38       DOPC     O12      OSLP    -0.570000       15.9994           0
      5630 MEMB     38       DOPC     O11      OSLP    -0.570000       15.9994           0
      5631 MEMB     38       DOPC     C1       CTL2    -0.800000E-01   12.0110           0
      5632 MEMB     38       DOPC     HA       HAL2     0.900000E-01   1.00800           0
      5633 MEMB     38       DOPC     HB       HAL2     0.900000E-01   1.00800           0
      5634 MEMB     38       DOPC     C2       CTL1     0.170000       12.0110           0
      5635 MEMB     38       DOPC     HS       HAL1     0.900000E-01   1.00800           0
      5636 MEMB     38       DOPC     O21      OSL     -0.490000       15.9994           0
      5637 MEMB     38       DOPC     C21      CL       0.900000       12.0110           0
      5638 MEMB     38       DOPC     O22      OBL     -0.630000       15.9994           0
      5639 MEMB     38       DOPC     C22      CTL2    -0.220000       12.0110           0
      5640 MEMB     38       DOPC     H2R      HAL2     0.900000E-01   1.00800           0
      5641 MEMB     38       DOPC     H2S      HAL2     0.900000E-01   1.00800           0
      5642 MEMB     38       DOPC     C3       CTL2     0.800000E-01   12.0110           0
      5643 MEMB     38       DOPC     HX       HAL2     0.900000E-01   1.00800           0
      5644 MEMB     38       DOPC     HY       HAL2     0.900000E-01   1.00800           0
      5645 MEMB     38       DOPC     O31      OSL     -0.490000       15.9994           0
      5646 MEMB     38       DOPC     C31      CL       0.900000       12.0110           0
      5647 MEMB     38       DOPC     O32      OBL     -0.630000       15.9994           0
      5648 MEMB     38       DOPC     C32      CTL2    -0.220000       12.0110           0
      5649 MEMB     38       DOPC     H2X      HAL2     0.900000E-01   1.00800           0
      5650 MEMB     38       DOPC     H2Y      HAL2     0.900000E-01   1.00800           0
      5651 MEMB     38       DOPC     C23      CTL2    -0.180000       12.0110           0
      5652 MEMB     38       DOPC     H3R      HAL2     0.900000E-01   1.00800           0
      5653 MEMB     38       DOPC     H3S      HAL2     0.900000E-01   1.00800           0
      5654 MEMB     38       DOPC     C24      CTL2    -0.180000       12.0110           0
      5655 MEMB     38       DOPC     H4R      HAL2     0.900000E-01   1.00800           0
      5656 MEMB     38       DOPC     H4S      HAL2     0.900000E-01   1.00800           0
      5657 MEMB     38       DOPC     C25      CTL2    -0.180000       12.0110           0
      5658 MEMB     38       DOPC     H5R      HAL2     0.900000E-01   1.00800           0
      5659 MEMB     38       DOPC     H5S      HAL2     0.900000E-01   1.00800           0
      5660 MEMB     38       DOPC     C26      CTL2    -0.180000       12.0110           0
      5661 MEMB     38       DOPC     H6R      HAL2     0.900000E-01   1.00800           0
      5662 MEMB     38       DOPC     H6S      HAL2     0.900000E-01   1.00800           0
      5663 MEMB     38       DOPC     C27      CTL2    -0.180000       12.0110           0
      5664 MEMB     38       DOPC     H7R      HAL2     0.900000E-01   1.00800           0
      5665 MEMB     38       DOPC     H7S      HAL2     0.900000E-01   1.00800           0
      5666 MEMB     38       DOPC     C28      CTL2    -0.180000       12.0110           0
      5667 MEMB     38       DOPC     H8R      HAL2     0.900000E-01   1.00800           0
      5668 MEMB     38       DOPC     H8S      HAL2     0.900000E-01   1.00800           0
      5669 MEMB     38       DOPC     C29      CEL1    -0.150000       12.0110           0
      5670 MEMB     38       DOPC     H9R      HEL1     0.150000       1.00800           0
      5671 MEMB     38       DOPC     C210     CEL1    -0.150000       12.0110           0
      5672 MEMB     38       DOPC     H10R     HEL1     0.150000       1.00800           0
      5673 MEMB     38       DOPC     C211     CTL2    -0.180000       12.0110           0
      5674 MEMB     38       DOPC     H11R     HAL2     0.900000E-01   1.00800           0
      5675 MEMB     38       DOPC     H11S     HAL2     0.900000E-01   1.00800           0
      5676 MEMB     38       DOPC     C212     CTL2    -0.180000       12.0110           0
      5677 MEMB     38       DOPC     H12R     HAL2     0.900000E-01   1.00800           0
      5678 MEMB     38       DOPC     H12S     HAL2     0.900000E-01   1.00800           0
      5679 MEMB     38       DOPC     C213     CTL2    -0.180000       12.0110           0
      5680 MEMB     38       DOPC     H13R     HAL2     0.900000E-01   1.00800           0
      5681 MEMB     38       DOPC     H13S     HAL2     0.900000E-01   1.00800           0
      5682 MEMB     38       DOPC     C214     CTL2    -0.180000       12.0110           0
      5683 MEMB     38       DOPC     H14R     HAL2     0.900000E-01   1.00800           0
      5684 MEMB     38       DOPC     H14S     HAL2     0.900000E-01   1.00800           0
      5685 MEMB     38       DOPC     C215     CTL2    -0.180000       12.0110           0
      5686 MEMB     38       DOPC     H15R     HAL2     0.900000E-01   1.00800           0
      5687 MEMB     38       DOPC     H15S     HAL2     0.900000E-01   1.00800           0
      5688 MEMB     38       DOPC     C216     CTL2    -0.180000       12.0110           0
      5689 MEMB     38       DOPC     H16R     HAL2     0.900000E-01   1.00800           0
      5690 MEMB     38       DOPC     H16S     HAL2     0.900000E-01   1.00800           0
      5691 MEMB     38       DOPC     C217     CTL2    -0.180000       12.0110           0
      5692 MEMB     38       DOPC     H17R     HAL2     0.900000E-01   1.00800           0
      5693 MEMB     38       DOPC     H17S     HAL2     0.900000E-01   1.00800           0
      5694 MEMB     38       DOPC     C218     CTL3    -0.270000       12.0110           0
      5695 MEMB     38       DOPC     H18R     HAL3     0.900000E-01   1.00800           0
      5696 MEMB     38       DOPC     H18S     HAL3     0.900000E-01   1.00800           0
      5697 MEMB     38       DOPC     H18T     HAL3     0.900000E-01   1.00800           0
      5698 MEMB     38       DOPC     C33      CTL2    -0.180000       12.0110           0
      5699 MEMB     38       DOPC     H3X      HAL2     0.900000E-01   1.00800           0
      5700 MEMB     38       DOPC     H3Y      HAL2     0.900000E-01   1.00800           0
      5701 MEMB     38       DOPC     C34      CTL2    -0.180000       12.0110           0
      5702 MEMB     38       DOPC     H4X      HAL2     0.900000E-01   1.00800           0
      5703 MEMB     38       DOPC     H4Y      HAL2     0.900000E-01   1.00800           0
      5704 MEMB     38       DOPC     C35      CTL2    -0.180000       12.0110           0
      5705 MEMB     38       DOPC     H5X      HAL2     0.900000E-01   1.00800           0
      5706 MEMB     38       DOPC     H5Y      HAL2     0.900000E-01   1.00800           0
      5707 MEMB     38       DOPC     C36      CTL2    -0.180000       12.0110           0
      5708 MEMB     38       DOPC     H6X      HAL2     0.900000E-01   1.00800           0
      5709 MEMB     38       DOPC     H6Y      HAL2     0.900000E-01   1.00800           0
      5710 MEMB     38       DOPC     C37      CTL2    -0.180000       12.0110           0
      5711 MEMB     38       DOPC     H7X      HAL2     0.900000E-01   1.00800           0
      5712 MEMB     38       DOPC     H7Y      HAL2     0.900000E-01   1.00800           0
      5713 MEMB     38       DOPC     C38      CTL2    -0.180000       12.0110           0
      5714 MEMB     38       DOPC     H8X      HAL2     0.900000E-01   1.00800           0
      5715 MEMB     38       DOPC     H8Y      HAL2     0.900000E-01   1.00800           0
      5716 MEMB     38       DOPC     C39      CEL1    -0.150000       12.0110           0
      5717 MEMB     38       DOPC     H9X      HEL1     0.150000       1.00800           0
      5718 MEMB     38       DOPC     C310     CEL1    -0.150000       12.0110           0
      5719 MEMB     38       DOPC     H10X     HEL1     0.150000       1.00800           0
      5720 MEMB     38       DOPC     C311     CTL2    -0.180000       12.0110           0
      5721 MEMB     38       DOPC     H11X     HAL2     0.900000E-01   1.00800           0
      5722 MEMB     38       DOPC     H11Y     HAL2     0.900000E-01   1.00800           0
      5723 MEMB     38       DOPC     C312     CTL2    -0.180000       12.0110           0
      5724 MEMB     38       DOPC     H12X     HAL2     0.900000E-01   1.00800           0
      5725 MEMB     38       DOPC     H12Y     HAL2     0.900000E-01   1.00800           0
      5726 MEMB     38       DOPC     C313     CTL2    -0.180000       12.0110           0
      5727 MEMB     38       DOPC     H13X     HAL2     0.900000E-01   1.00800           0
      5728 MEMB     38       DOPC     H13Y     HAL2     0.900000E-01   1.00800           0
      5729 MEMB     38       DOPC     C314     CTL2    -0.180000       12.0110           0
      5730 MEMB     38       DOPC     H14X     HAL2     0.900000E-01   1.00800           0
      5731 MEMB     38       DOPC     H14Y     HAL2     0.900000E-01   1.00800           0
      5732 MEMB     38       DOPC     C315     CTL2    -0.180000       12.0110           0
      5733 MEMB     38       DOPC     H15X     HAL2     0.900000E-01   1.00800           0
      5734 MEMB     38       DOPC     H15Y     HAL2     0.900000E-01   1.00800           0
      5735 MEMB     38       DOPC     C316     CTL2    -0.180000       12.0110           0
      5736 MEMB     38       DOPC     H16X     HAL2     0.900000E-01   1.00800           0
      5737 MEMB     38       DOPC     H16Y     HAL2     0.900000E-01   1.00800           0
      5738 MEMB     38       DOPC     C317     CTL2    -0.180000       12.0110           0
      5739 MEMB     38       DOPC     H17X     HAL2     0.900000E-01   1.00800           0
      5740 MEMB     38       DOPC     H17Y     HAL2     0.900000E-01   1.00800           0
      5741 MEMB     38       DOPC     C318     CTL3    -0.270000       12.0110           0
      5742 MEMB     38       DOPC     H18X     HAL3     0.900000E-01   1.00800           0
      5743 MEMB     38       DOPC     H18Y     HAL3     0.900000E-01   1.00800           0
      5744 MEMB     38       DOPC     H18Z     HAL3     0.900000E-01   1.00800           0
      5745 MEMB     39       DOPC     N        NTL     -0.600000       14.0070           0
      5746 MEMB     39       DOPC     C12      CTL2    -0.100000       12.0110           0
      5747 MEMB     39       DOPC     H12A     HL       0.250000       1.00800           0
      5748 MEMB     39       DOPC     H12B     HL       0.250000       1.00800           0
      5749 MEMB     39       DOPC     C13      CTL5    -0.350000       12.0110           0
      5750 MEMB     39       DOPC     H13A     HL       0.250000       1.00800           0
      5751 MEMB     39       DOPC     H13B     HL       0.250000       1.00800           0
      5752 MEMB     39       DOPC     H13C     HL       0.250000       1.00800           0
      5753 MEMB     39       DOPC     C14      CTL5    -0.350000       12.0110           0
      5754 MEMB     39       DOPC     H14A     HL       0.250000       1.00800           0
      5755 MEMB     39       DOPC     H14B     HL       0.250000       1.00800           0
      5756 MEMB     39       DOPC     H14C     HL       0.250000       1.00800           0
      5757 MEMB     39       DOPC     C15      CTL5    -0.350000       12.0110           0
      5758 MEMB     39       DOPC     H15A     HL       0.250000       1.00800           0
      5759 MEMB     39       DOPC     H15B     HL       0.250000       1.00800           0
      5760 MEMB     39       DOPC     H15C     HL       0.250000       1.00800           0
      5761 MEMB     39       DOPC     C11      CTL2    -0.800000E-01   12.0110           0
      5762 MEMB     39       DOPC     H11A     HAL2     0.900000E-01   1.00800           0
      5763 MEMB     39       DOPC     H11B     HAL2     0.900000E-01   1.00800           0
      5764 MEMB     39       DOPC     P        PL        1.50000       30.9740           0
      5765 MEMB     39       DOPC     O13      O2L     -0.780000       15.9994           0
      5766 MEMB     39       DOPC     O14      O2L     -0.780000       15.9994           0
      5767 MEMB     39       DOPC     O12      OSLP    -0.570000       15.9994           0
      5768 MEMB     39       DOPC     O11      OSLP    -0.570000       15.9994           0
      5769 MEMB     39       DOPC     C1       CTL2    -0.800000E-01   12.0110           0
      5770 MEMB     39       DOPC     HA       HAL2     0.900000E-01   1.00800           0
      5771 MEMB     39       DOPC     HB       HAL2     0.900000E-01   1.00800           0
      5772 MEMB     39       DOPC     C2       CTL1     0.170000       12.0110           0
      5773 MEMB     39       DOPC     HS       HAL1     0.900000E-01   1.00800           0
      5774 MEMB     39       DOPC     O21      OSL     -0.490000       15.9994           0
      5775 MEMB     39       DOPC     C21      CL       0.900000       12.0110           0
      5776 MEMB     39       DOPC     O22      OBL     -0.630000       15.9994           0
      5777 MEMB     39       DOPC     C22      CTL2    -0.220000       12.0110           0
      5778 MEMB     39       DOPC     H2R      HAL2     0.900000E-01   1.00800           0
      5779 MEMB     39       DOPC     H2S      HAL2     0.900000E-01   1.00800           0
      5780 MEMB     39       DOPC     C3       CTL2     0.800000E-01   12.0110           0
      5781 MEMB     39       DOPC     HX       HAL2     0.900000E-01   1.00800           0
      5782 MEMB     39       DOPC     HY       HAL2     0.900000E-01   1.00800           0
      5783 MEMB     39       DOPC     O31      OSL     -0.490000       15.9994           0
      5784 MEMB     39       DOPC     C31      CL       0.900000       12.0110           0
      5785 MEMB     39       DOPC     O32      OBL     -0.630000       15.9994           0
      5786 MEMB     39       DOPC     C32      CTL2    -0.220000       12.0110           0
      5787 MEMB     39       DOPC     H2X      HAL2     0.900000E-01   1.00800           0
      5788 MEMB     39       DOPC     H2Y      HAL2     0.900000E-01   1.00800           0
      5789 MEMB     39       DOPC     C23      CTL2    -0.180000       12.0110           0
      5790 MEMB     39       DOPC     H3R      HAL2     0.900000E-01   1.00800           0
      5791 MEMB     39       DOPC     H3S      HAL2     0.900000E-01   1.00800           0
      5792 MEMB     39       DOPC     C24      CTL2    -0.180000       12.0110           0
      5793 MEMB     39       DOPC     H4R      HAL2     0.900000E-01   1.00800           0
      5794 MEMB     39       DOPC     H4S      HAL2     0.900000E-01   1.00800           0
      5795 MEMB     39       DOPC     C25      CTL2    -0.180000       12.0110           0
      5796 MEMB     39       DOPC     H5R      HAL2     0.900000E-01   1.00800           0
      5797 MEMB     39       DOPC     H5S      HAL2     0.900000E-01   1.00800           0
      5798 MEMB     39       DOPC     C26      CTL2    -0.180000       12.0110           0
      5799 MEMB     39       DOPC     H6R      HAL2     0.900000E-01   1.00800           0
      5800 MEMB     39       DOPC     H6S      HAL2     0.900000E-01   1.00800           0
      5801 MEMB     39       DOPC     C27      CTL2    -0.180000       12.0110           0
      5802 MEMB     39       DOPC     H7R      HAL2     0.900000E-01   1.00800           0
      5803 MEMB     39       DOPC     H7S      HAL2     0.900000E-01   1.00800           0
      5804 MEMB     39       DOPC     C28      CTL2    -0.180000       12.0110           0
      5805 MEMB     39       DOPC     H8R      HAL2     0.900000E-01   1.00800           0
      5806 MEMB     39       DOPC     H8S      HAL2     0.900000E-01   1.00800           0
      5807 MEMB     39       DOPC     C29      CEL1    -0.150000       12.0110           0
      5808 MEMB     39       DOPC     H9R      HEL1     0.150000       1.00800           0
      5809 MEMB     39       DOPC     C210     CEL1    -0.150000       12.0110           0
      5810 MEMB     39       DOPC     H10R     HEL1     0.150000       1.00800           0
      5811 MEMB     39       DOPC     C211     CTL2    -0.180000       12.0110           0
      5812 MEMB     39       DOPC     H11R     HAL2     0.900000E-01   1.00800           0
      5813 MEMB     39       DOPC     H11S     HAL2     0.900000E-01   1.00800           0
      5814 MEMB     39       DOPC     C212     CTL2    -0.180000       12.0110           0
      5815 MEMB     39       DOPC     H12R     HAL2     0.900000E-01   1.00800           0
      5816 MEMB     39       DOPC     H12S     HAL2     0.900000E-01   1.00800           0
      5817 MEMB     39       DOPC     C213     CTL2    -0.180000       12.0110           0
      5818 MEMB     39       DOPC     H13R     HAL2     0.900000E-01   1.00800           0
      5819 MEMB     39       DOPC     H13S     HAL2     0.900000E-01   1.00800           0
      5820 MEMB     39       DOPC     C214     CTL2    -0.180000       12.0110           0
      5821 MEMB     39       DOPC     H14R     HAL2     0.900000E-01   1.00800           0
      5822 MEMB     39       DOPC     H14S     HAL2     0.900000E-01   1.00800           0
      5823 MEMB     39       DOPC     C215     CTL2    -0.180000       12.0110           0
      5824 MEMB     39       DOPC     H15R     HAL2     0.900000E-01   1.00800           0
      5825 MEMB     39       DOPC     H15S     HAL2     0.900000E-01   1.00800           0
      5826 MEMB     39       DOPC     C216     CTL2    -0.180000       12.0110           0
      5827 MEMB     39       DOPC     H16R     HAL2     0.900000E-01   1.00800           0
      5828 MEMB     39       DOPC     H16S     HAL2     0.900000E-01   1.00800           0
      5829 MEMB     39       DOPC     C217     CTL2    -0.180000       12.0110           0
      5830 MEMB     39       DOPC     H17R     HAL2     0.900000E-01   1.00800           0
      5831 MEMB     39       DOPC     H17S     HAL2     0.900000E-01   1.00800           0
      5832 MEMB     39       DOPC     C218     CTL3    -0.270000       12.0110           0
      5833 MEMB     39       DOPC     H18R     HAL3     0.900000E-01   1.00800           0
      5834 MEMB     39       DOPC     H18S     HAL3     0.900000E-01   1.00800           0
      5835 MEMB     39       DOPC     H18T     HAL3     0.900000E-01   1.00800           0
      5836 MEMB     39       DOPC     C33      CTL2    -0.180000       12.0110           0
      5837 MEMB     39       DOPC     H3X      HAL2     0.900000E-01   1.00800           0
      5838 MEMB     39       DOPC     H3Y      HAL2     0.900000E-01   1.00800           0
      5839 MEMB     39       DOPC     C34      CTL2    -0.180000       12.0110           0
      5840 MEMB     39       DOPC     H4X      HAL2     0.900000E-01   1.00800           0
      5841 MEMB     39       DOPC     H4Y      HAL2     0.900000E-01   1.00800           0
      5842 MEMB     39       DOPC     C35      CTL2    -0.180000       12.0110           0
      5843 MEMB     39       DOPC     H5X      HAL2     0.900000E-01   1.00800           0
      5844 MEMB     39       DOPC     H5Y      HAL2     0.900000E-01   1.00800           0
      5845 MEMB     39       DOPC     C36      CTL2    -0.180000       12.0110           0
      5846 MEMB     39       DOPC     H6X      HAL2     0.900000E-01   1.00800           0
      5847 MEMB     39       DOPC     H6Y      HAL2     0.900000E-01   1.00800           0
      5848 MEMB     39       DOPC     C37      CTL2    -0.180000       12.0110           0
      5849 MEMB     39       DOPC     H7X      HAL2     0.900000E-01   1.00800           0
      5850 MEMB     39       DOPC     H7Y      HAL2     0.900000E-01   1.00800           0
      5851 MEMB     39       DOPC     C38      CTL2    -0.180000       12.0110           0
      5852 MEMB     39       DOPC     H8X      HAL2     0.900000E-01   1.00800           0
      5853 MEMB     39       DOPC     H8Y      HAL2     0.900000E-01   1.00800           0
      5854 MEMB     39       DOPC     C39      CEL1    -0.150000       12.0110           0
      5855 MEMB     39       DOPC     H9X      HEL1     0.150000       1.00800           0
      5856 MEMB     39       DOPC     C310     CEL1    -0.150000       12.0110           0
      5857 MEMB     39       DOPC     H10X     HEL1     0.150000       1.00800           0
      5858 MEMB     39       DOPC     C311     CTL2    -0.180000       12.0110           0
      5859 MEMB     39       DOPC     H11X     HAL2     0.900000E-01   1.00800           0
      5860 MEMB     39       DOPC     H11Y     HAL2     0.900000E-01   1.00800           0
      5861 MEMB     39       DOPC     C312     CTL2    -0.180000       12.0110           0
      5862 MEMB     39       DOPC     H12X     HAL2     0.900000E-01   1.00800           0
      5863 MEMB     39       DOPC     H12Y     HAL2     0.900000E-01   1.00800           0
      5864 MEMB     39       DOPC     C313     CTL2    -0.180000       12.0110           0
      5865 MEMB     39       DOPC     H13X     HAL2     0.900000E-01   1.00800           0
      5866 MEMB     39       DOPC     H13Y     HAL2     0.900000E-01   1.00800           0
      5867 MEMB     39       DOPC     C314     CTL2    -0.180000       12.0110           0
      5868 MEMB     39       DOPC     H14X     HAL2     0.900000E-01   1.00800           0
      5869 MEMB     39       DOPC     H14Y     HAL2     0.900000E-01   1.00800           0
      5870 MEMB     39       DOPC     C315     CTL2    -0.180000       12.0110           0
      5871 MEMB     39       DOPC     H15X     HAL2     0.900000E-01   1.00800           0
      5872 MEMB     39       DOPC     H15Y     HAL2     0.900000E-01   1.00800           0
      5873 MEMB     39       DOPC     C316     CTL2    -0.180000       12.0110           0
      5874 MEMB     39       DOPC     H16X     HAL2     0.900000E-01   1.00800           0
      5875 MEMB     39       DOPC     H16Y     HAL2     0.900000E-01   1.00800           0
      5876 MEMB     39       DOPC     C317     CTL2    -0.180000       12.0110           0
      5877 MEMB     39       DOPC     H17X     HAL2     0.900000E-01   1.00800           0
      5878 MEMB     39       DOPC     H17Y     HAL2     0.900000E-01   1.00800           0
      5879 MEMB     39       DOPC     C318     CTL3    -0.270000       12.0110           0
      5880 MEMB     39       DOPC     H18X     HAL3     0.900000E-01   1.00800           0
      5881 MEMB     39       DOPC     H18Y     HAL3     0.900000E-01   1.00800           0
      5882 MEMB     39       DOPC     H18Z     HAL3     0.900000E-01   1.00800           0
      5883 MEMB     40       DOPC     N        NTL     -0.600000       14.0070           0
      5884 MEMB     40       DOPC     C12      CTL2    -0.100000       12.0110           0
      5885 MEMB     40       DOPC     H12A     HL       0.250000       1.00800           0
      5886 MEMB     40       DOPC     H12B     HL       0.250000       1.00800           0
      5887 MEMB     40       DOPC     C13      CTL5    -0.350000       12.0110           0
      5888 MEMB     40       DOPC     H13A     HL       0.250000       1.00800           0
      5889 MEMB     40       DOPC     H13B     HL       0.250000       1.00800           0
      5890 MEMB     40       DOPC     H13C     HL       0.250000       1.00800           0
      5891 MEMB     40       DOPC     C14      CTL5    -0.350000       12.0110           0
      5892 MEMB     40       DOPC     H14A     HL       0.250000       1.00800           0
      5893 MEMB     40       DOPC     H14B     HL       0.250000       1.00800           0
      5894 MEMB     40       DOPC     H14C     HL       0.250000       1.00800           0
      5895 MEMB     40       DOPC     C15      CTL5    -0.350000       12.0110           0
      5896 MEMB     40       DOPC     H15A     HL       0.250000       1.00800           0
      5897 MEMB     40       DOPC     H15B     HL       0.250000       1.00800           0
      5898 MEMB     40       DOPC     H15C     HL       0.250000       1.00800           0
      5899 MEMB     40       DOPC     C11      CTL2    -0.800000E-01   12.0110           0
      5900 MEMB     40       DOPC     H11A     HAL2     0.900000E-01   1.00800           0
      5901 MEMB     40       DOPC     H11B     HAL2     0.900000E-01   1.00800           0
      5902 MEMB     40       DOPC     P        PL        1.50000       30.9740           0
      5903 MEMB     40       DOPC     O13      O2L     -0.780000       15.9994           0
      5904 MEMB     40       DOPC     O14      O2L     -0.780000       15.9994           0
      5905 MEMB     40       DOPC     O12      OSLP    -0.570000       15.9994           0
      5906 MEMB     40       DOPC     O11      OSLP    -0.570000       15.9994           0
      5907 MEMB     40       DOPC     C1       CTL2    -0.800000E-01   12.0110           0
      5908 MEMB     40       DOPC     HA       HAL2     0.900000E-01   1.00800           0
      5909 MEMB     40       DOPC     HB       HAL2     0.900000E-01   1.00800           0
      5910 MEMB     40       DOPC     C2       CTL1     0.170000       12.0110           0
      5911 MEMB     40       DOPC     HS       HAL1     0.900000E-01   1.00800           0
      5912 MEMB     40       DOPC     O21      OSL     -0.490000       15.9994           0
      5913 MEMB     40       DOPC     C21      CL       0.900000       12.0110           0
      5914 MEMB     40       DOPC     O22      OBL     -0.630000       15.9994           0
      5915 MEMB     40       DOPC     C22      CTL2    -0.220000       12.0110           0
      5916 MEMB     40       DOPC     H2R      HAL2     0.900000E-01   1.00800           0
      5917 MEMB     40       DOPC     H2S      HAL2     0.900000E-01   1.00800           0
      5918 MEMB     40       DOPC     C3       CTL2     0.800000E-01   12.0110           0
      5919 MEMB     40       DOPC     HX       HAL2     0.900000E-01   1.00800           0
      5920 MEMB     40       DOPC     HY       HAL2     0.900000E-01   1.00800           0
      5921 MEMB     40       DOPC     O31      OSL     -0.490000       15.9994           0
      5922 MEMB     40       DOPC     C31      CL       0.900000       12.0110           0
      5923 MEMB     40       DOPC     O32      OBL     -0.630000       15.9994           0
      5924 MEMB     40       DOPC     C32      CTL2    -0.220000       12.0110           0
      5925 MEMB     40       DOPC     H2X      HAL2     0.900000E-01   1.00800           0
      5926 MEMB     40       DOPC     H2Y      HAL2     0.900000E-01   1.00800           0
      5927 MEMB     40       DOPC     C23      CTL2    -0.180000       12.0110           0
      5928 MEMB     40       DOPC     H3R      HAL2     0.900000E-01   1.00800           0
      5929 MEMB     40       DOPC     H3S      HAL2     0.900000E-01   1.00800           0
      5930 MEMB     40       DOPC     C24      CTL2    -0.180000       12.0110           0
      5931 MEMB     40       DOPC     H4R      HAL2     0.900000E-01   1.00800           0
      5932 MEMB     40       DOPC     H4S      HAL2     0.900000E-01   1.00800           0
      5933 MEMB     40       DOPC     C25      CTL2    -0.180000       12.0110           0
      5934 MEMB     40       DOPC     H5R      HAL2     0.900000E-01   1.00800           0
      5935 MEMB     40       DOPC     H5S      HAL2     0.900000E-01   1.00800           0
      5936 MEMB     40       DOPC     C26      CTL2    -0.180000       12.0110           0
      5937 MEMB     40       DOPC     H6R      HAL2     0.900000E-01   1.00800           0
      5938 MEMB     40       DOPC     H6S      HAL2     0.900000E-01   1.00800           0
      5939 MEMB     40       DOPC     C27      CTL2    -0.180000       12.0110           0
      5940 MEMB     40       DOPC     H7R      HAL2     0.900000E-01   1.00800           0
      5941 MEMB     40       DOPC     H7S      HAL2     0.900000E-01   1.00800           0
      5942 MEMB     40       DOPC     C28      CTL2    -0.180000       12.0110           0
      5943 MEMB     40       DOPC     H8R      HAL2     0.900000E-01   1.00800           0
      5944 MEMB     40       DOPC     H8S      HAL2     0.900000E-01   1.00800           0
      5945 MEMB     40       DOPC     C29      CEL1    -0.150000       12.0110           0
      5946 MEMB     40       DOPC     H9R      HEL1     0.150000       1.00800           0
      5947 MEMB     40       DOPC     C210     CEL1    -0.150000       12.0110           0
      5948 MEMB     40       DOPC     H10R     HEL1     0.150000       1.00800           0
      5949 MEMB     40       DOPC     C211     CTL2    -0.180000       12.0110           0
      5950 MEMB     40       DOPC     H11R     HAL2     0.900000E-01   1.00800           0
      5951 MEMB     40       DOPC     H11S     HAL2     0.900000E-01   1.00800           0
      5952 MEMB     40       DOPC     C212     CTL2    -0.180000       12.0110           0
      5953 MEMB     40       DOPC     H12R     HAL2     0.900000E-01   1.00800           0
      5954 MEMB     40       DOPC     H12S     HAL2     0.900000E-01   1.00800           0
      5955 MEMB     40       DOPC     C213     CTL2    -0.180000       12.0110           0
      5956 MEMB     40       DOPC     H13R     HAL2     0.900000E-01   1.00800           0
      5957 MEMB     40       DOPC     H13S     HAL2     0.900000E-01   1.00800           0
      5958 MEMB     40       DOPC     C214     CTL2    -0.180000       12.0110           0
      5959 MEMB     40       DOPC     H14R     HAL2     0.900000E-01   1.00800           0
      5960 MEMB     40       DOPC     H14S     HAL2     0.900000E-01   1.00800           0
      5961 MEMB     40       DOPC     C215     CTL2    -0.180000       12.0110           0
      5962 MEMB     40       DOPC     H15R     HAL2     0.900000E-01   1.00800           0
      5963 MEMB     40       DOPC     H15S     HAL2     0.900000E-01   1.00800           0
      5964 MEMB     40       DOPC     C216     CTL2    -0.180000       12.0110           0
      5965 MEMB     40       DOPC     H16R     HAL2     0.900000E-01   1.00800           0
      5966 MEMB     40       DOPC     H16S     HAL2     0.900000E-01   1.00800           0
      5967 MEMB     40       DOPC     C217     CTL2    -0.180000       12.0110           0
      5968 MEMB     40       DOPC     H17R     HAL2     0.900000E-01   1.00800           0
      5969 MEMB     40       DOPC     H17S     HAL2     0.900000E-01   1.00800           0
      5970 MEMB     40       DOPC     C218     CTL3    -0.270000       12.0110           0
      5971 MEMB     40       DOPC     H18R     HAL3     0.900000E-01   1.00800           0
      5972 MEMB     40       DOPC     H18S     HAL3     0.900000E-01   1.00800           0
      5973 MEMB     40       DOPC     H18T     HAL3     0.900000E-01   1.00800           0
      5974 MEMB     40       DOPC     C33      CTL2    -0.180000       12.0110           0
      5975 MEMB     40       DOPC     H3X      HAL2     0.900000E-01   1.00800           0
      5976 MEMB     40       DOPC     H3Y      HAL2     0.900000E-01   1.00800           0
      5977 MEMB     40       DOPC     C34      CTL2    -0.180000       12.0110           0
      5978 MEMB     40       DOPC     H4X      HAL2     0.900000E-01   1.00800           0
      5979 MEMB     40       DOPC     H4Y      HAL2     0.900000E-01   1.00800           0
      5980 MEMB     40       DOPC     C35      CTL2    -0.180000       12.0110           0
      5981 MEMB     40       DOPC     H5X      HAL2     0.900000E-01   1.00800           0
      5982 MEMB     40       DOPC     H5Y      HAL2     0.900000E-01   1.00800           0
      5983 MEMB     40       DOPC     C36      CTL2    -0.180000       12.0110           0
      5984 MEMB     40       DOPC     H6X      HAL2     0.900000E-01   1.00800           0
      5985 MEMB     40       DOPC     H6Y      HAL2     0.900000E-01   1.00800           0
      5986 MEMB     40       DOPC     C37      CTL2    -0.180000       12.0110           0
      5987 MEMB     40       DOPC     H7X      HAL2     0.900000E-01   1.00800           0
      5988 MEMB     40       DOPC     H7Y      HAL2     0.900000E-01   1.00800           0
      5989 MEMB     40       DOPC     C38      CTL2    -0.180000       12.0110           0
      5990 MEMB     40       DOPC     H8X      HAL2     0.900000E-01   1.00800           0
      5991 MEMB     40       DOPC     H8Y      HAL2     0.900000E-01   1.00800           0
      5992 MEMB     40       DOPC     C39      CEL1    -0.150000       12.0110           0
      5993 MEMB     40       DOPC     H9X      HEL1     0.150000       1.00800           0
      5994 MEMB     40       DOPC     C310     CEL1    -0.150000       12.0110           0
      5995 MEMB     40       DOPC     H10X     HEL1     0.150000       1.00800           0
      5996 MEMB     40       DOPC     C311     CTL2    -0.180000       12.0110           0
      5997 MEMB     40       DOPC     H11X     HAL2     0.900000E-01   1.00800           0
      5998 MEMB     40       DOPC     H11Y     HAL2     0.900000E-01   1.00800           0
      5999 MEMB     40       DOPC     C312     CTL2    -0.180000       12.0110           0
      6000 MEMB     40       DOPC     H12X     HAL2     0.900000E-01   1.00800           0
      6001 MEMB     40       DOPC     H12Y     HAL2     0.900000E-01   1.00800           0
      6002 MEMB     40       DOPC     C313     CTL2    -0.180000       12.0110           0
      6003 MEMB     40       DOPC     H13X     HAL2     0.900000E-01   1.00800           0
      6004 MEMB     40       DOPC     H13Y     HAL2     0.900000E-01   1.00800           0
      6005 MEMB     40       DOPC     C314     CTL2    -0.180000       12.0110           0
      6006 MEMB     40       DOPC     H14X     HAL2     0.900000E-01   1.00800           0
      6007 MEMB     40       DOPC     H14Y     HAL2     0.900000E-01   1.00800           0
      6008 MEMB     40       DOPC     C315     CTL2    -0.180000       12.0110           0
      6009 MEMB     40       DOPC     H15X     HAL2     0.900000E-01   1.00800           0
      6010 MEMB     40       DOPC     H15Y     HAL2     0.900000E-01   1.00800           0
      6011 MEMB     40       DOPC     C316     CTL2    -0.180000       12.0110           0
      6012 MEMB     40       DOPC     H16X     HAL2     0.900000E-01   1.00800           0
      6013 MEMB     40       DOPC     H16Y     HAL2     0.900000E-01   1.00800           0
      6014 MEMB     40       DOPC     C317     CTL2    -0.180000       12.0110           0
      6015 MEMB     40       DOPC     H17X     HAL2     0.900000E-01   1.00800           0
      6016 MEMB     40       DOPC     H17Y     HAL2     0.900000E-01   1.00800           0
      6017 MEMB     40       DOPC     C318     CTL3    -0.270000       12.0110           0
      6018 MEMB     40       DOPC     H18X     HAL3     0.900000E-01   1.00800           0
      6019 MEMB     40       DOPC     H18Y     HAL3     0.900000E-01   1.00800           0
      6020 MEMB     40       DOPC     H18Z     HAL3     0.900000E-01   1.00800           0
      6021 MEMB     41       DOPC     N        NTL     -0.600000       14.0070           0
      6022 MEMB     41       DOPC     C12      CTL2    -0.100000       12.0110           0
      6023 MEMB     41       DOPC     H12A     HL       0.250000       1.00800           0
      6024 MEMB     41       DOPC     H12B     HL       0.250000       1.00800           0
      6025 MEMB     41       DOPC     C13      CTL5    -0.350000       12.0110           0
      6026 MEMB     41       DOPC     H13A     HL       0.250000       1.00800           0
      6027 MEMB     41       DOPC     H13B     HL       0.250000       1.00800           0
      6028 MEMB     41       DOPC     H13C     HL       0.250000       1.00800           0
      6029 MEMB     41       DOPC     C14      CTL5    -0.350000       12.0110           0
      6030 MEMB     41       DOPC     H14A     HL       0.250000       1.00800           0
      6031 MEMB     41       DOPC     H14B     HL       0.250000       1.00800           0
      6032 MEMB     41       DOPC     H14C     HL       0.250000       1.00800           0
      6033 MEMB     41       DOPC     C15      CTL5    -0.350000       12.0110           0
      6034 MEMB     41       DOPC     H15A     HL       0.250000       1.00800           0
      6035 MEMB     41       DOPC     H15B     HL       0.250000       1.00800           0
      6036 MEMB     41       DOPC     H15C     HL       0.250000       1.00800           0
      6037 MEMB     41       DOPC     C11      CTL2    -0.800000E-01   12.0110           0
      6038 MEMB     41       DOPC     H11A     HAL2     0.900000E-01   1.00800           0
      6039 MEMB     41       DOPC     H11B     HAL2     0.900000E-01   1.00800           0
      6040 MEMB     41       DOPC     P        PL        1.50000       30.9740           0
      6041 MEMB     41       DOPC     O13      O2L     -0.780000       15.9994           0
      6042 MEMB     41       DOPC     O14      O2L     -0.780000       15.9994           0
      6043 MEMB     41       DOPC     O12      OSLP    -0.570000       15.9994           0
      6044 MEMB     41       DOPC     O11      OSLP    -0.570000       15.9994           0
      6045 MEMB     41       DOPC     C1       CTL2    -0.800000E-01   12.0110           0
      6046 MEMB     41       DOPC     HA       HAL2     0.900000E-01   1.00800           0
      6047 MEMB     41       DOPC     HB       HAL2     0.900000E-01   1.00800           0
      6048 MEMB     41       DOPC     C2       CTL1     0.170000       12.0110           0
      6049 MEMB     41       DOPC     HS       HAL1     0.900000E-01   1.00800           0
      6050 MEMB     41       DOPC     O21      OSL     -0.490000       15.9994           0
      6051 MEMB     41       DOPC     C21      CL       0.900000       12.0110           0
      6052 MEMB     41       DOPC     O22      OBL     -0.630000       15.9994           0
      6053 MEMB     41       DOPC     C22      CTL2    -0.220000       12.0110           0
      6054 MEMB     41       DOPC     H2R      HAL2     0.900000E-01   1.00800           0
      6055 MEMB     41       DOPC     H2S      HAL2     0.900000E-01   1.00800           0
      6056 MEMB     41       DOPC     C3       CTL2     0.800000E-01   12.0110           0
      6057 MEMB     41       DOPC     HX       HAL2     0.900000E-01   1.00800           0
      6058 MEMB     41       DOPC     HY       HAL2     0.900000E-01   1.00800           0
      6059 MEMB     41       DOPC     O31      OSL     -0.490000       15.9994           0
      6060 MEMB     41       DOPC     C31      CL       0.900000       12.0110           0
      6061 MEMB     41       DOPC     O32      OBL     -0.630000       15.9994           0
      6062 MEMB     41       DOPC     C32      CTL2    -0.220000       12.0110           0
      6063 MEMB     41       DOPC     H2X      HAL2     0.900000E-01   1.00800           0
      6064 MEMB     41       DOPC     H2Y      HAL2     0.900000E-01   1.00800           0
      6065 MEMB     41       DOPC     C23      CTL2    -0.180000       12.0110           0
      6066 MEMB     41       DOPC     H3R      HAL2     0.900000E-01   1.00800           0
      6067 MEMB     41       DOPC     H3S      HAL2     0.900000E-01   1.00800           0
      6068 MEMB     41       DOPC     C24      CTL2    -0.180000       12.0110           0
      6069 MEMB     41       DOPC     H4R      HAL2     0.900000E-01   1.00800           0
      6070 MEMB     41       DOPC     H4S      HAL2     0.900000E-01   1.00800           0
      6071 MEMB     41       DOPC     C25      CTL2    -0.180000       12.0110           0
      6072 MEMB     41       DOPC     H5R      HAL2     0.900000E-01   1.00800           0
      6073 MEMB     41       DOPC     H5S      HAL2     0.900000E-01   1.00800           0
      6074 MEMB     41       DOPC     C26      CTL2    -0.180000       12.0110           0
      6075 MEMB     41       DOPC     H6R      HAL2     0.900000E-01   1.00800           0
      6076 MEMB     41       DOPC     H6S      HAL2     0.900000E-01   1.00800           0
      6077 MEMB     41       DOPC     C27      CTL2    -0.180000       12.0110           0
      6078 MEMB     41       DOPC     H7R      HAL2     0.900000E-01   1.00800           0
      6079 MEMB     41       DOPC     H7S      HAL2     0.900000E-01   1.00800           0
      6080 MEMB     41       DOPC     C28      CTL2    -0.180000       12.0110           0
      6081 MEMB     41       DOPC     H8R      HAL2     0.900000E-01   1.00800           0
      6082 MEMB     41       DOPC     H8S      HAL2     0.900000E-01   1.00800           0
      6083 MEMB     41       DOPC     C29      CEL1    -0.150000       12.0110           0
      6084 MEMB     41       DOPC     H9R      HEL1     0.150000       1.00800           0
      6085 MEMB     41       DOPC     C210     CEL1    -0.150000       12.0110           0
      6086 MEMB     41       DOPC     H10R     HEL1     0.150000       1.00800           0
      6087 MEMB     41       DOPC     C211     CTL2    -0.180000       12.0110           0
      6088 MEMB     41       DOPC     H11R     HAL2     0.900000E-01   1.00800           0
      6089 MEMB     41       DOPC     H11S     HAL2     0.900000E-01   1.00800           0
      6090 MEMB     41       DOPC     C212     CTL2    -0.180000       12.0110           0
      6091 MEMB     41       DOPC     H12R     HAL2     0.900000E-01   1.00800           0
      6092 MEMB     41       DOPC     H12S     HAL2     0.900000E-01   1.00800           0
      6093 MEMB     41       DOPC     C213     CTL2    -0.180000       12.0110           0
      6094 MEMB     41       DOPC     H13R     HAL2     0.900000E-01   1.00800           0
      6095 MEMB     41       DOPC     H13S     HAL2     0.900000E-01   1.00800           0
      6096 MEMB     41       DOPC     C214     CTL2    -0.180000       12.0110           0
      6097 MEMB     41       DOPC     H14R     HAL2     0.900000E-01   1.00800           0
      6098 MEMB     41       DOPC     H14S     HAL2     0.900000E-01   1.00800           0
      6099 MEMB     41       DOPC     C215     CTL2    -0.180000       12.0110           0
      6100 MEMB     41       DOPC     H15R     HAL2     0.900000E-01   1.00800           0
      6101 MEMB     41       DOPC     H15S     HAL2     0.900000E-01   1.00800           0
      6102 MEMB     41       DOPC     C216     CTL2    -0.180000       12.0110           0
      6103 MEMB     41       DOPC     H16R     HAL2     0.900000E-01   1.00800           0
      6104 MEMB     41       DOPC     H16S     HAL2     0.900000E-01   1.00800           0
      6105 MEMB     41       DOPC     C217     CTL2    -0.180000       12.0110           0
      6106 MEMB     41       DOPC     H17R     HAL2     0.900000E-01   1.00800           0
      6107 MEMB     41       DOPC     H17S     HAL2     0.900000E-01   1.00800           0
      6108 MEMB     41       DOPC     C218     CTL3    -0.270000       12.0110           0
      6109 MEMB     41       DOPC     H18R     HAL3     0.900000E-01   1.00800           0
      6110 MEMB     41       DOPC     H18S     HAL3     0.900000E-01   1.00800           0
      6111 MEMB     41       DOPC     H18T     HAL3     0.900000E-01   1.00800           0
      6112 MEMB     41       DOPC     C33      CTL2    -0.180000       12.0110           0
      6113 MEMB     41       DOPC     H3X      HAL2     0.900000E-01   1.00800           0
      6114 MEMB     41       DOPC     H3Y      HAL2     0.900000E-01   1.00800           0
      6115 MEMB     41       DOPC     C34      CTL2    -0.180000       12.0110           0
      6116 MEMB     41       DOPC     H4X      HAL2     0.900000E-01   1.00800           0
      6117 MEMB     41       DOPC     H4Y      HAL2     0.900000E-01   1.00800           0
      6118 MEMB     41       DOPC     C35      CTL2    -0.180000       12.0110           0
      6119 MEMB     41       DOPC     H5X      HAL2     0.900000E-01   1.00800           0
      6120 MEMB     41       DOPC     H5Y      HAL2     0.900000E-01   1.00800           0
      6121 MEMB     41       DOPC     C36      CTL2    -0.180000       12.0110           0
      6122 MEMB     41       DOPC     H6X      HAL2     0.900000E-01   1.00800           0
      6123 MEMB     41       DOPC     H6Y      HAL2     0.900000E-01   1.00800           0
      6124 MEMB     41       DOPC     C37      CTL2    -0.180000       12.0110           0
      6125 MEMB     41       DOPC     H7X      HAL2     0.900000E-01   1.00800           0
      6126 MEMB     41       DOPC     H7Y      HAL2     0.900000E-01   1.00800           0
      6127 MEMB     41       DOPC     C38      CTL2    -0.180000       12.0110           0
      6128 MEMB     41       DOPC     H8X      HAL2     0.900000E-01   1.00800           0
      6129 MEMB     41       DOPC     H8Y      HAL2     0.900000E-01   1.00800           0
      6130 MEMB     41       DOPC     C39      CEL1    -0.150000       12.0110           0
      6131 MEMB     41       DOPC     H9X      HEL1     0.150000       1.00800           0
      6132 MEMB     41       DOPC     C310     CEL1    -0.150000       12.0110           0
      6133 MEMB     41       DOPC     H10X     HEL1     0.150000       1.00800           0
      6134 MEMB     41       DOPC     C311     CTL2    -0.180000       12.0110           0
      6135 MEMB     41       DOPC     H11X     HAL2     0.900000E-01   1.00800           0
      6136 MEMB     41       DOPC     H11Y     HAL2     0.900000E-01   1.00800           0
      6137 MEMB     41       DOPC     C312     CTL2    -0.180000       12.0110           0
      6138 MEMB     41       DOPC     H12X     HAL2     0.900000E-01   1.00800           0
      6139 MEMB     41       DOPC     H12Y     HAL2     0.900000E-01   1.00800           0
      6140 MEMB     41       DOPC     C313     CTL2    -0.180000       12.0110           0
      6141 MEMB     41       DOPC     H13X     HAL2     0.900000E-01   1.00800           0
      6142 MEMB     41       DOPC     H13Y     HAL2     0.900000E-01   1.00800           0
      6143 MEMB     41       DOPC     C314     CTL2    -0.180000       12.0110           0
      6144 MEMB     41       DOPC     H14X     HAL2     0.900000E-01   1.00800           0
      6145 MEMB     41       DOPC     H14Y     HAL2     0.900000E-01   1.00800           0
      6146 MEMB     41       DOPC     C315     CTL2    -0.180000       12.0110           0
      6147 MEMB     41       DOPC     H15X     HAL2     0.900000E-01   1.00800           0
      6148 MEMB     41       DOPC     H15Y     HAL2     0.900000E-01   1.00800           0
      6149 MEMB     41       DOPC     C316     CTL2    -0.180000       12.0110           0
      6150 MEMB     41       DOPC     H16X     HAL2     0.900000E-01   1.00800           0
      6151 MEMB     41       DOPC     H16Y     HAL2     0.900000E-01   1.00800           0
      6152 MEMB     41       DOPC     C317     CTL2    -0.180000       12.0110           0
      6153 MEMB     41       DOPC     H17X     HAL2     0.900000E-01   1.00800           0
      6154 MEMB     41       DOPC     H17Y     HAL2     0.900000E-01   1.00800           0
      6155 MEMB     41       DOPC     C318     CTL3    -0.270000       12.0110           0
      6156 MEMB     41       DOPC     H18X     HAL3     0.900000E-01   1.00800           0
      6157 MEMB     41       DOPC     H18Y     HAL3     0.900000E-01   1.00800           0
      6158 MEMB     41       DOPC     H18Z     HAL3     0.900000E-01   1.00800           0
      6159 MEMB     42       DOPC     N        NTL     -0.600000       14.0070           0
      6160 MEMB     42       DOPC     C12      CTL2    -0.100000       12.0110           0
      6161 MEMB     42       DOPC     H12A     HL       0.250000       1.00800           0
      6162 MEMB     42       DOPC     H12B     HL       0.250000       1.00800           0
      6163 MEMB     42       DOPC     C13      CTL5    -0.350000       12.0110           0
      6164 MEMB     42       DOPC     H13A     HL       0.250000       1.00800           0
      6165 MEMB     42       DOPC     H13B     HL       0.250000       1.00800           0
      6166 MEMB     42       DOPC     H13C     HL       0.250000       1.00800           0
      6167 MEMB     42       DOPC     C14      CTL5    -0.350000       12.0110           0
      6168 MEMB     42       DOPC     H14A     HL       0.250000       1.00800           0
      6169 MEMB     42       DOPC     H14B     HL       0.250000       1.00800           0
      6170 MEMB     42       DOPC     H14C     HL       0.250000       1.00800           0
      6171 MEMB     42       DOPC     C15      CTL5    -0.350000       12.0110           0
      6172 MEMB     42       DOPC     H15A     HL       0.250000       1.00800           0
      6173 MEMB     42       DOPC     H15B     HL       0.250000       1.00800           0
      6174 MEMB     42       DOPC     H15C     HL       0.250000       1.00800           0
      6175 MEMB     42       DOPC     C11      CTL2    -0.800000E-01   12.0110           0
      6176 MEMB     42       DOPC     H11A     HAL2     0.900000E-01   1.00800           0
      6177 MEMB     42       DOPC     H11B     HAL2     0.900000E-01   1.00800           0
      6178 MEMB     42       DOPC     P        PL        1.50000       30.9740           0
      6179 MEMB     42       DOPC     O13      O2L     -0.780000       15.9994           0
      6180 MEMB     42       DOPC     O14      O2L     -0.780000       15.9994           0
      6181 MEMB     42       DOPC     O12      OSLP    -0.570000       15.9994           0
      6182 MEMB     42       DOPC     O11      OSLP    -0.570000       15.9994           0
      6183 MEMB     42       DOPC     C1       CTL2    -0.800000E-01   12.0110           0
      6184 MEMB     42       DOPC     HA       HAL2     0.900000E-01   1.00800           0
      6185 MEMB     42       DOPC     HB       HAL2     0.900000E-01   1.00800           0
      6186 MEMB     42       DOPC     C2       CTL1     0.170000       12.0110           0
      6187 MEMB     42       DOPC     HS       HAL1     0.900000E-01   1.00800           0
      6188 MEMB     42       DOPC     O21      OSL     -0.490000       15.9994           0
      6189 MEMB     42       DOPC     C21      CL       0.900000       12.0110           0
      6190 MEMB     42       DOPC     O22      OBL     -0.630000       15.9994           0
      6191 MEMB     42       DOPC     C22      CTL2    -0.220000       12.0110           0
      6192 MEMB     42       DOPC     H2R      HAL2     0.900000E-01   1.00800           0
      6193 MEMB     42       DOPC     H2S      HAL2     0.900000E-01   1.00800           0
      6194 MEMB     42       DOPC     C3       CTL2     0.800000E-01   12.0110           0
      6195 MEMB     42       DOPC     HX       HAL2     0.900000E-01   1.00800           0
      6196 MEMB     42       DOPC     HY       HAL2     0.900000E-01   1.00800           0
      6197 MEMB     42       DOPC     O31      OSL     -0.490000       15.9994           0
      6198 MEMB     42       DOPC     C31      CL       0.900000       12.0110           0
      6199 MEMB     42       DOPC     O32      OBL     -0.630000       15.9994           0
      6200 MEMB     42       DOPC     C32      CTL2    -0.220000       12.0110           0
      6201 MEMB     42       DOPC     H2X      HAL2     0.900000E-01   1.00800           0
      6202 MEMB     42       DOPC     H2Y      HAL2     0.900000E-01   1.00800           0
      6203 MEMB     42       DOPC     C23      CTL2    -0.180000       12.0110           0
      6204 MEMB     42       DOPC     H3R      HAL2     0.900000E-01   1.00800           0
      6205 MEMB     42       DOPC     H3S      HAL2     0.900000E-01   1.00800           0
      6206 MEMB     42       DOPC     C24      CTL2    -0.180000       12.0110           0
      6207 MEMB     42       DOPC     H4R      HAL2     0.900000E-01   1.00800           0
      6208 MEMB     42       DOPC     H4S      HAL2     0.900000E-01   1.00800           0
      6209 MEMB     42       DOPC     C25      CTL2    -0.180000       12.0110           0
      6210 MEMB     42       DOPC     H5R      HAL2     0.900000E-01   1.00800           0
      6211 MEMB     42       DOPC     H5S      HAL2     0.900000E-01   1.00800           0
      6212 MEMB     42       DOPC     C26      CTL2    -0.180000       12.0110           0
      6213 MEMB     42       DOPC     H6R      HAL2     0.900000E-01   1.00800           0
      6214 MEMB     42       DOPC     H6S      HAL2     0.900000E-01   1.00800           0
      6215 MEMB     42       DOPC     C27      CTL2    -0.180000       12.0110           0
      6216 MEMB     42       DOPC     H7R      HAL2     0.900000E-01   1.00800           0
      6217 MEMB     42       DOPC     H7S      HAL2     0.900000E-01   1.00800           0
      6218 MEMB     42       DOPC     C28      CTL2    -0.180000       12.0110           0
      6219 MEMB     42       DOPC     H8R      HAL2     0.900000E-01   1.00800           0
      6220 MEMB     42       DOPC     H8S      HAL2     0.900000E-01   1.00800           0
      6221 MEMB     42       DOPC     C29      CEL1    -0.150000       12.0110           0
      6222 MEMB     42       DOPC     H9R      HEL1     0.150000       1.00800           0
      6223 MEMB     42       DOPC     C210     CEL1    -0.150000       12.0110           0
      6224 MEMB     42       DOPC     H10R     HEL1     0.150000       1.00800           0
      6225 MEMB     42       DOPC     C211     CTL2    -0.180000       12.0110           0
      6226 MEMB     42       DOPC     H11R     HAL2     0.900000E-01   1.00800           0
      6227 MEMB     42       DOPC     H11S     HAL2     0.900000E-01   1.00800           0
      6228 MEMB     42       DOPC     C212     CTL2    -0.180000       12.0110           0
      6229 MEMB     42       DOPC     H12R     HAL2     0.900000E-01   1.00800           0
      6230 MEMB     42       DOPC     H12S     HAL2     0.900000E-01   1.00800           0
      6231 MEMB     42       DOPC     C213     CTL2    -0.180000       12.0110           0
      6232 MEMB     42       DOPC     H13R     HAL2     0.900000E-01   1.00800           0
      6233 MEMB     42       DOPC     H13S     HAL2     0.900000E-01   1.00800           0
      6234 MEMB     42       DOPC     C214     CTL2    -0.180000       12.0110           0
      6235 MEMB     42       DOPC     H14R     HAL2     0.900000E-01   1.00800           0
      6236 MEMB     42       DOPC     H14S     HAL2     0.900000E-01   1.00800           0
      6237 MEMB     42       DOPC     C215     CTL2    -0.180000       12.0110           0
      6238 MEMB     42       DOPC     H15R     HAL2     0.900000E-01   1.00800           0
      6239 MEMB     42       DOPC     H15S     HAL2     0.900000E-01   1.00800           0
      6240 MEMB     42       DOPC     C216     CTL2    -0.180000       12.0110           0
      6241 MEMB     42       DOPC     H16R     HAL2     0.900000E-01   1.00800           0
      6242 MEMB     42       DOPC     H16S     HAL2     0.900000E-01   1.00800           0
      6243 MEMB     42       DOPC     C217     CTL2    -0.180000       12.0110           0
      6244 MEMB     42       DOPC     H17R     HAL2     0.900000E-01   1.00800           0
      6245 MEMB     42       DOPC     H17S     HAL2     0.900000E-01   1.00800           0
      6246 MEMB     42       DOPC     C218     CTL3    -0.270000       12.0110           0
      6247 MEMB     42       DOPC     H18R     HAL3     0.900000E-01   1.00800           0
      6248 MEMB     42       DOPC     H18S     HAL3     0.900000E-01   1.00800           0
      6249 MEMB     42       DOPC     H18T     HAL3     0.900000E-01   1.00800           0
      6250 MEMB     42       DOPC     C33      CTL2    -0.180000       12.0110           0
      6251 MEMB     42       DOPC     H3X      HAL2     0.900000E-01   1.00800           0
      6252 MEMB     42       DOPC     H3Y      HAL2     0.900000E-01   1.00800           0
      6253 MEMB     42       DOPC     C34      CTL2    -0.180000       12.0110           0
      6254 MEMB     42       DOPC     H4X      HAL2     0.900000E-01   1.00800           0
      6255 MEMB     42       DOPC     H4Y      HAL2     0.900000E-01   1.00800           0
      6256 MEMB     42       DOPC     C35      CTL2    -0.180000       12.0110           0
      6257 MEMB     42       DOPC     H5X      HAL2     0.900000E-01   1.00800           0
      6258 MEMB     42       DOPC     H5Y      HAL2     0.900000E-01   1.00800           0
      6259 MEMB     42       DOPC     C36      CTL2    -0.180000       12.0110           0
      6260 MEMB     42       DOPC     H6X      HAL2     0.900000E-01   1.00800           0
      6261 MEMB     42       DOPC     H6Y      HAL2     0.900000E-01   1.00800           0
      6262 MEMB     42       DOPC     C37      CTL2    -0.180000       12.0110           0
      6263 MEMB     42       DOPC     H7X      HAL2     0.900000E-01   1.00800           0
      6264 MEMB     42       DOPC     H7Y      HAL2     0.900000E-01   1.00800           0
      6265 MEMB     42       DOPC     C38      CTL2    -0.180000       12.0110           0
      6266 MEMB     42       DOPC     H8X      HAL2     0.900000E-01   1.00800           0
      6267 MEMB     42       DOPC     H8Y      HAL2     0.900000E-01   1.00800           0
      6268 MEMB     42       DOPC     C39      CEL1    -0.150000       12.0110           0
      6269 MEMB     42       DOPC     H9X      HEL1     0.150000       1.00800           0
      6270 MEMB     42       DOPC     C310     CEL1    -0.150000       12.0110           0
      6271 MEMB     42       DOPC     H10X     HEL1     0.150000       1.00800           0
      6272 MEMB     42       DOPC     C311     CTL2    -0.180000       12.0110           0
      6273 MEMB     42       DOPC     H11X     HAL2     0.900000E-01   1.00800           0
      6274 MEMB     42       DOPC     H11Y     HAL2     0.900000E-01   1.00800           0
      6275 MEMB     42       DOPC     C312     CTL2    -0.180000       12.0110           0
      6276 MEMB     42       DOPC     H12X     HAL2     0.900000E-01   1.00800           0
      6277 MEMB     42       DOPC     H12Y     HAL2     0.900000E-01   1.00800           0
      6278 MEMB     42       DOPC     C313     CTL2    -0.180000       12.0110           0
      6279 MEMB     42       DOPC     H13X     HAL2     0.900000E-01   1.00800           0
      6280 MEMB     42       DOPC     H13Y     HAL2     0.900000E-01   1.00800           0
      6281 MEMB     42       DOPC     C314     CTL2    -0.180000       12.0110           0
      6282 MEMB     42       DOPC     H14X     HAL2     0.900000E-01   1.00800           0
      6283 MEMB     42       DOPC     H14Y     HAL2     0.900000E-01   1.00800           0
      6284 MEMB     42       DOPC     C315     CTL2    -0.180000       12.0110           0
      6285 MEMB     42       DOPC     H15X     HAL2     0.900000E-01   1.00800           0
      6286 MEMB     42       DOPC     H15Y     HAL2     0.900000E-01   1.00800           0
      6287 MEMB     42       DOPC     C316     CTL2    -0.180000       12.0110           0
      6288 MEMB     42       DOPC     H16X     HAL2     0.900000E-01   1.00800           0
      6289 MEMB     42       DOPC     H16Y     HAL2     0.900000E-01   1.00800           0
      6290 MEMB     42       DOPC     C317     CTL2    -0.180000       12.0110           0
      6291 MEMB     42       DOPC     H17X     HAL2     0.900000E-01   1.00800           0
      6292 MEMB     42       DOPC     H17Y     HAL2     0.900000E-01   1.00800           0
      6293 MEMB     42       DOPC     C318     CTL3    -0.270000       12.0110           0
      6294 MEMB     42       DOPC     H18X     HAL3     0.900000E-01   1.00800           0
      6295 MEMB     42       DOPC     H18Y     HAL3     0.900000E-01   1.00800           0
      6296 MEMB     42       DOPC     H18Z     HAL3     0.900000E-01   1.00800           0
      6297 MEMB     43       DOPC     N        NTL     -0.600000       14.0070           0
      6298 MEMB     43       DOPC     C12      CTL2    -0.100000       12.0110           0
      6299 MEMB     43       DOPC     H12A     HL       0.250000       1.00800           0
      6300 MEMB     43       DOPC     H12B     HL       0.250000       1.00800           0
      6301 MEMB     43       DOPC     C13      CTL5    -0.350000       12.0110           0
      6302 MEMB     43       DOPC     H13A     HL       0.250000       1.00800           0
      6303 MEMB     43       DOPC     H13B     HL       0.250000       1.00800           0
      6304 MEMB     43       DOPC     H13C     HL       0.250000       1.00800           0
      6305 MEMB     43       DOPC     C14      CTL5    -0.350000       12.0110           0
      6306 MEMB     43       DOPC     H14A     HL       0.250000       1.00800           0
      6307 MEMB     43       DOPC     H14B     HL       0.250000       1.00800           0
      6308 MEMB     43       DOPC     H14C     HL       0.250000       1.00800           0
      6309 MEMB     43       DOPC     C15      CTL5    -0.350000       12.0110           0
      6310 MEMB     43       DOPC     H15A     HL       0.250000       1.00800           0
      6311 MEMB     43       DOPC     H15B     HL       0.250000       1.00800           0
      6312 MEMB     43       DOPC     H15C     HL       0.250000       1.00800           0
      6313 MEMB     43       DOPC     C11      CTL2    -0.800000E-01   12.0110           0
      6314 MEMB     43       DOPC     H11A     HAL2     0.900000E-01   1.00800           0
      6315 MEMB     43       DOPC     H11B     HAL2     0.900000E-01   1.00800           0
      6316 MEMB     43       DOPC     P        PL        1.50000       30.9740           0
      6317 MEMB     43       DOPC     O13      O2L     -0.780000       15.9994           0
      6318 MEMB     43       DOPC     O14      O2L     -0.780000       15.9994           0
      6319 MEMB     43       DOPC     O12      OSLP    -0.570000       15.9994           0
      6320 MEMB     43       DOPC     O11      OSLP    -0.570000       15.9994           0
      6321 MEMB     43       DOPC     C1       CTL2    -0.800000E-01   12.0110           0
      6322 MEMB     43       DOPC     HA       HAL2     0.900000E-01   1.00800           0
      6323 MEMB     43       DOPC     HB       HAL2     0.900000E-01   1.00800           0
      6324 MEMB     43       DOPC     C2       CTL1     0.170000       12.0110           0
      6325 MEMB     43       DOPC     HS       HAL1     0.900000E-01   1.00800           0
      6326 MEMB     43       DOPC     O21      OSL     -0.490000       15.9994           0
      6327 MEMB     43       DOPC     C21      CL       0.900000       12.0110           0
      6328 MEMB     43       DOPC     O22      OBL     -0.630000       15.9994           0
      6329 MEMB     43       DOPC     C22      CTL2    -0.220000       12.0110           0
      6330 MEMB     43       DOPC     H2R      HAL2     0.900000E-01   1.00800           0
      6331 MEMB     43       DOPC     H2S      HAL2     0.900000E-01   1.00800           0
      6332 MEMB     43       DOPC     C3       CTL2     0.800000E-01   12.0110           0
      6333 MEMB     43       DOPC     HX       HAL2     0.900000E-01   1.00800           0
      6334 MEMB     43       DOPC     HY       HAL2     0.900000E-01   1.00800           0
      6335 MEMB     43       DOPC     O31      OSL     -0.490000       15.9994           0
      6336 MEMB     43       DOPC     C31      CL       0.900000       12.0110           0
      6337 MEMB     43       DOPC     O32      OBL     -0.630000       15.9994           0
      6338 MEMB     43       DOPC     C32      CTL2    -0.220000       12.0110           0
      6339 MEMB     43       DOPC     H2X      HAL2     0.900000E-01   1.00800           0
      6340 MEMB     43       DOPC     H2Y      HAL2     0.900000E-01   1.00800           0
      6341 MEMB     43       DOPC     C23      CTL2    -0.180000       12.0110           0
      6342 MEMB     43       DOPC     H3R      HAL2     0.900000E-01   1.00800           0
      6343 MEMB     43       DOPC     H3S      HAL2     0.900000E-01   1.00800           0
      6344 MEMB     43       DOPC     C24      CTL2    -0.180000       12.0110           0
      6345 MEMB     43       DOPC     H4R      HAL2     0.900000E-01   1.00800           0
      6346 MEMB     43       DOPC     H4S      HAL2     0.900000E-01   1.00800           0
      6347 MEMB     43       DOPC     C25      CTL2    -0.180000       12.0110           0
      6348 MEMB     43       DOPC     H5R      HAL2     0.900000E-01   1.00800           0
      6349 MEMB     43       DOPC     H5S      HAL2     0.900000E-01   1.00800           0
      6350 MEMB     43       DOPC     C26      CTL2    -0.180000       12.0110           0
      6351 MEMB     43       DOPC     H6R      HAL2     0.900000E-01   1.00800           0
      6352 MEMB     43       DOPC     H6S      HAL2     0.900000E-01   1.00800           0
      6353 MEMB     43       DOPC     C27      CTL2    -0.180000       12.0110           0
      6354 MEMB     43       DOPC     H7R      HAL2     0.900000E-01   1.00800           0
      6355 MEMB     43       DOPC     H7S      HAL2     0.900000E-01   1.00800           0
      6356 MEMB     43       DOPC     C28      CTL2    -0.180000       12.0110           0
      6357 MEMB     43       DOPC     H8R      HAL2     0.900000E-01   1.00800           0
      6358 MEMB     43       DOPC     H8S      HAL2     0.900000E-01   1.00800           0
      6359 MEMB     43       DOPC     C29      CEL1    -0.150000       12.0110           0
      6360 MEMB     43       DOPC     H9R      HEL1     0.150000       1.00800           0
      6361 MEMB     43       DOPC     C210     CEL1    -0.150000       12.0110           0
      6362 MEMB     43       DOPC     H10R     HEL1     0.150000       1.00800           0
      6363 MEMB     43       DOPC     C211     CTL2    -0.180000       12.0110           0
      6364 MEMB     43       DOPC     H11R     HAL2     0.900000E-01   1.00800           0
      6365 MEMB     43       DOPC     H11S     HAL2     0.900000E-01   1.00800           0
      6366 MEMB     43       DOPC     C212     CTL2    -0.180000       12.0110           0
      6367 MEMB     43       DOPC     H12R     HAL2     0.900000E-01   1.00800           0
      6368 MEMB     43       DOPC     H12S     HAL2     0.900000E-01   1.00800           0
      6369 MEMB     43       DOPC     C213     CTL2    -0.180000       12.0110           0
      6370 MEMB     43       DOPC     H13R     HAL2     0.900000E-01   1.00800           0
      6371 MEMB     43       DOPC     H13S     HAL2     0.900000E-01   1.00800           0
      6372 MEMB     43       DOPC     C214     CTL2    -0.180000       12.0110           0
      6373 MEMB     43       DOPC     H14R     HAL2     0.900000E-01   1.00800           0
      6374 MEMB     43       DOPC     H14S     HAL2     0.900000E-01   1.00800           0
      6375 MEMB     43       DOPC     C215     CTL2    -0.180000       12.0110           0
      6376 MEMB     43       DOPC     H15R     HAL2     0.900000E-01   1.00800           0
      6377 MEMB     43       DOPC     H15S     HAL2     0.900000E-01   1.00800           0
      6378 MEMB     43       DOPC     C216     CTL2    -0.180000       12.0110           0
      6379 MEMB     43       DOPC     H16R     HAL2     0.900000E-01   1.00800           0
      6380 MEMB     43       DOPC     H16S     HAL2     0.900000E-01   1.00800           0
      6381 MEMB     43       DOPC     C217     CTL2    -0.180000       12.0110           0
      6382 MEMB     43       DOPC     H17R     HAL2     0.900000E-01   1.00800           0
      6383 MEMB     43       DOPC     H17S     HAL2     0.900000E-01   1.00800           0
      6384 MEMB     43       DOPC     C218     CTL3    -0.270000       12.0110           0
      6385 MEMB     43       DOPC     H18R     HAL3     0.900000E-01   1.00800           0
      6386 MEMB     43       DOPC     H18S     HAL3     0.900000E-01   1.00800           0
      6387 MEMB     43       DOPC     H18T     HAL3     0.900000E-01   1.00800           0
      6388 MEMB     43       DOPC     C33      CTL2    -0.180000       12.0110           0
      6389 MEMB     43       DOPC     H3X      HAL2     0.900000E-01   1.00800           0
      6390 MEMB     43       DOPC     H3Y      HAL2     0.900000E-01   1.00800           0
      6391 MEMB     43       DOPC     C34      CTL2    -0.180000       12.0110           0
      6392 MEMB     43       DOPC     H4X      HAL2     0.900000E-01   1.00800           0
      6393 MEMB     43       DOPC     H4Y      HAL2     0.900000E-01   1.00800           0
      6394 MEMB     43       DOPC     C35      CTL2    -0.180000       12.0110           0
      6395 MEMB     43       DOPC     H5X      HAL2     0.900000E-01   1.00800           0
      6396 MEMB     43       DOPC     H5Y      HAL2     0.900000E-01   1.00800           0
      6397 MEMB     43       DOPC     C36      CTL2    -0.180000       12.0110           0
      6398 MEMB     43       DOPC     H6X      HAL2     0.900000E-01   1.00800           0
      6399 MEMB     43       DOPC     H6Y      HAL2     0.900000E-01   1.00800           0
      6400 MEMB     43       DOPC     C37      CTL2    -0.180000       12.0110           0
      6401 MEMB     43       DOPC     H7X      HAL2     0.900000E-01   1.00800           0
      6402 MEMB     43       DOPC     H7Y      HAL2     0.900000E-01   1.00800           0
      6403 MEMB     43       DOPC     C38      CTL2    -0.180000       12.0110           0
      6404 MEMB     43       DOPC     H8X      HAL2     0.900000E-01   1.00800           0
      6405 MEMB     43       DOPC     H8Y      HAL2     0.900000E-01   1.00800           0
      6406 MEMB     43       DOPC     C39      CEL1    -0.150000       12.0110           0
      6407 MEMB     43       DOPC     H9X      HEL1     0.150000       1.00800           0
      6408 MEMB     43       DOPC     C310     CEL1    -0.150000       12.0110           0
      6409 MEMB     43       DOPC     H10X     HEL1     0.150000       1.00800           0
      6410 MEMB     43       DOPC     C311     CTL2    -0.180000       12.0110           0
      6411 MEMB     43       DOPC     H11X     HAL2     0.900000E-01   1.00800           0
      6412 MEMB     43       DOPC     H11Y     HAL2     0.900000E-01   1.00800           0
      6413 MEMB     43       DOPC     C312     CTL2    -0.180000       12.0110           0
      6414 MEMB     43       DOPC     H12X     HAL2     0.900000E-01   1.00800           0
      6415 MEMB     43       DOPC     H12Y     HAL2     0.900000E-01   1.00800           0
      6416 MEMB     43       DOPC     C313     CTL2    -0.180000       12.0110           0
      6417 MEMB     43       DOPC     H13X     HAL2     0.900000E-01   1.00800           0
      6418 MEMB     43       DOPC     H13Y     HAL2     0.900000E-01   1.00800           0
      6419 MEMB     43       DOPC     C314     CTL2    -0.180000       12.0110           0
      6420 MEMB     43       DOPC     H14X     HAL2     0.900000E-01   1.00800           0
      6421 MEMB     43       DOPC     H14Y     HAL2     0.900000E-01   1.00800           0
      6422 MEMB     43       DOPC     C315     CTL2    -0.180000       12.0110           0
      6423 MEMB     43       DOPC     H15X     HAL2     0.900000E-01   1.00800           0
      6424 MEMB     43       DOPC     H15Y     HAL2     0.900000E-01   1.00800           0
      6425 MEMB     43       DOPC     C316     CTL2    -0.180000       12.0110           0
      6426 MEMB     43       DOPC     H16X     HAL2     0.900000E-01   1.00800           0
      6427 MEMB     43       DOPC     H16Y     HAL2     0.900000E-01   1.00800           0
      6428 MEMB     43       DOPC     C317     CTL2    -0.180000       12.0110           0
      6429 MEMB     43       DOPC     H17X     HAL2     0.900000E-01   1.00800           0
      6430 MEMB     43       DOPC     H17Y     HAL2     0.900000E-01   1.00800           0
      6431 MEMB     43       DOPC     C318     CTL3    -0.270000       12.0110           0
      6432 MEMB     43       DOPC     H18X     HAL3     0.900000E-01   1.00800           0
      6433 MEMB     43       DOPC     H18Y     HAL3     0.900000E-01   1.00800           0
      6434 MEMB     43       DOPC     H18Z     HAL3     0.900000E-01   1.00800           0
      6435 MEMB     44       DOPC     N        NTL     -0.600000       14.0070           0
      6436 MEMB     44       DOPC     C12      CTL2    -0.100000       12.0110           0
      6437 MEMB     44       DOPC     H12A     HL       0.250000       1.00800           0
      6438 MEMB     44       DOPC     H12B     HL       0.250000       1.00800           0
      6439 MEMB     44       DOPC     C13      CTL5    -0.350000       12.0110           0
      6440 MEMB     44       DOPC     H13A     HL       0.250000       1.00800           0
      6441 MEMB     44       DOPC     H13B     HL       0.250000       1.00800           0
      6442 MEMB     44       DOPC     H13C     HL       0.250000       1.00800           0
      6443 MEMB     44       DOPC     C14      CTL5    -0.350000       12.0110           0
      6444 MEMB     44       DOPC     H14A     HL       0.250000       1.00800           0
      6445 MEMB     44       DOPC     H14B     HL       0.250000       1.00800           0
      6446 MEMB     44       DOPC     H14C     HL       0.250000       1.00800           0
      6447 MEMB     44       DOPC     C15      CTL5    -0.350000       12.0110           0
      6448 MEMB     44       DOPC     H15A     HL       0.250000       1.00800           0
      6449 MEMB     44       DOPC     H15B     HL       0.250000       1.00800           0
      6450 MEMB     44       DOPC     H15C     HL       0.250000       1.00800           0
      6451 MEMB     44       DOPC     C11      CTL2    -0.800000E-01   12.0110           0
      6452 MEMB     44       DOPC     H11A     HAL2     0.900000E-01   1.00800           0
      6453 MEMB     44       DOPC     H11B     HAL2     0.900000E-01   1.00800           0
      6454 MEMB     44       DOPC     P        PL        1.50000       30.9740           0
      6455 MEMB     44       DOPC     O13      O2L     -0.780000       15.9994           0
      6456 MEMB     44       DOPC     O14      O2L     -0.780000       15.9994           0
      6457 MEMB     44       DOPC     O12      OSLP    -0.570000       15.9994           0
      6458 MEMB     44       DOPC     O11      OSLP    -0.570000       15.9994           0
      6459 MEMB     44       DOPC     C1       CTL2    -0.800000E-01   12.0110           0
      6460 MEMB     44       DOPC     HA       HAL2     0.900000E-01   1.00800           0
      6461 MEMB     44       DOPC     HB       HAL2     0.900000E-01   1.00800           0
      6462 MEMB     44       DOPC     C2       CTL1     0.170000       12.0110           0
      6463 MEMB     44       DOPC     HS       HAL1     0.900000E-01   1.00800           0
      6464 MEMB     44       DOPC     O21      OSL     -0.490000       15.9994           0
      6465 MEMB     44       DOPC     C21      CL       0.900000       12.0110           0
      6466 MEMB     44       DOPC     O22      OBL     -0.630000       15.9994           0
      6467 MEMB     44       DOPC     C22      CTL2    -0.220000       12.0110           0
      6468 MEMB     44       DOPC     H2R      HAL2     0.900000E-01   1.00800           0
      6469 MEMB     44       DOPC     H2S      HAL2     0.900000E-01   1.00800           0
      6470 MEMB     44       DOPC     C3       CTL2     0.800000E-01   12.0110           0
      6471 MEMB     44       DOPC     HX       HAL2     0.900000E-01   1.00800           0
      6472 MEMB     44       DOPC     HY       HAL2     0.900000E-01   1.00800           0
      6473 MEMB     44       DOPC     O31      OSL     -0.490000       15.9994           0
      6474 MEMB     44       DOPC     C31      CL       0.900000       12.0110           0
      6475 MEMB     44       DOPC     O32      OBL     -0.630000       15.9994           0
      6476 MEMB     44       DOPC     C32      CTL2    -0.220000       12.0110           0
      6477 MEMB     44       DOPC     H2X      HAL2     0.900000E-01   1.00800           0
      6478 MEMB     44       DOPC     H2Y      HAL2     0.900000E-01   1.00800           0
      6479 MEMB     44       DOPC     C23      CTL2    -0.180000       12.0110           0
      6480 MEMB     44       DOPC     H3R      HAL2     0.900000E-01   1.00800           0
      6481 MEMB     44       DOPC     H3S      HAL2     0.900000E-01   1.00800           0
      6482 MEMB     44       DOPC     C24      CTL2    -0.180000       12.0110           0
      6483 MEMB     44       DOPC     H4R      HAL2     0.900000E-01   1.00800           0
      6484 MEMB     44       DOPC     H4S      HAL2     0.900000E-01   1.00800           0
      6485 MEMB     44       DOPC     C25      CTL2    -0.180000       12.0110           0
      6486 MEMB     44       DOPC     H5R      HAL2     0.900000E-01   1.00800           0
      6487 MEMB     44       DOPC     H5S      HAL2     0.900000E-01   1.00800           0
      6488 MEMB     44       DOPC     C26      CTL2    -0.180000       12.0110           0
      6489 MEMB     44       DOPC     H6R      HAL2     0.900000E-01   1.00800           0
      6490 MEMB     44       DOPC     H6S      HAL2     0.900000E-01   1.00800           0
      6491 MEMB     44       DOPC     C27      CTL2    -0.180000       12.0110           0
      6492 MEMB     44       DOPC     H7R      HAL2     0.900000E-01   1.00800           0
      6493 MEMB     44       DOPC     H7S      HAL2     0.900000E-01   1.00800           0
      6494 MEMB     44       DOPC     C28      CTL2    -0.180000       12.0110           0
      6495 MEMB     44       DOPC     H8R      HAL2     0.900000E-01   1.00800           0
      6496 MEMB     44       DOPC     H8S      HAL2     0.900000E-01   1.00800           0
      6497 MEMB     44       DOPC     C29      CEL1    -0.150000       12.0110           0
      6498 MEMB     44       DOPC     H9R      HEL1     0.150000       1.00800           0
      6499 MEMB     44       DOPC     C210     CEL1    -0.150000       12.0110           0
      6500 MEMB     44       DOPC     H10R     HEL1     0.150000       1.00800           0
      6501 MEMB     44       DOPC     C211     CTL2    -0.180000       12.0110           0
      6502 MEMB     44       DOPC     H11R     HAL2     0.900000E-01   1.00800           0
      6503 MEMB     44       DOPC     H11S     HAL2     0.900000E-01   1.00800           0
      6504 MEMB     44       DOPC     C212     CTL2    -0.180000       12.0110           0
      6505 MEMB     44       DOPC     H12R     HAL2     0.900000E-01   1.00800           0
      6506 MEMB     44       DOPC     H12S     HAL2     0.900000E-01   1.00800           0
      6507 MEMB     44       DOPC     C213     CTL2    -0.180000       12.0110           0
      6508 MEMB     44       DOPC     H13R     HAL2     0.900000E-01   1.00800           0
      6509 MEMB     44       DOPC     H13S     HAL2     0.900000E-01   1.00800           0
      6510 MEMB     44       DOPC     C214     CTL2    -0.180000       12.0110           0
      6511 MEMB     44       DOPC     H14R     HAL2     0.900000E-01   1.00800           0
      6512 MEMB     44       DOPC     H14S     HAL2     0.900000E-01   1.00800           0
      6513 MEMB     44       DOPC     C215     CTL2    -0.180000       12.0110           0
      6514 MEMB     44       DOPC     H15R     HAL2     0.900000E-01   1.00800           0
      6515 MEMB     44       DOPC     H15S     HAL2     0.900000E-01   1.00800           0
      6516 MEMB     44       DOPC     C216     CTL2    -0.180000       12.0110           0
      6517 MEMB     44       DOPC     H16R     HAL2     0.900000E-01   1.00800           0
      6518 MEMB     44       DOPC     H16S     HAL2     0.900000E-01   1.00800           0
      6519 MEMB     44       DOPC     C217     CTL2    -0.180000       12.0110           0
      6520 MEMB     44       DOPC     H17R     HAL2     0.900000E-01   1.00800           0
      6521 MEMB     44       DOPC     H17S     HAL2     0.900000E-01   1.00800           0
      6522 MEMB     44       DOPC     C218     CTL3    -0.270000       12.0110           0
      6523 MEMB     44       DOPC     H18R     HAL3     0.900000E-01   1.00800           0
      6524 MEMB     44       DOPC     H18S     HAL3     0.900000E-01   1.00800           0
      6525 MEMB     44       DOPC     H18T     HAL3     0.900000E-01   1.00800           0
      6526 MEMB     44       DOPC     C33      CTL2    -0.180000       12.0110           0
      6527 MEMB     44       DOPC     H3X      HAL2     0.900000E-01   1.00800           0
      6528 MEMB     44       DOPC     H3Y      HAL2     0.900000E-01   1.00800           0
      6529 MEMB     44       DOPC     C34      CTL2    -0.180000       12.0110           0
      6530 MEMB     44       DOPC     H4X      HAL2     0.900000E-01   1.00800           0
      6531 MEMB     44       DOPC     H4Y      HAL2     0.900000E-01   1.00800           0
      6532 MEMB     44       DOPC     C35      CTL2    -0.180000       12.0110           0
      6533 MEMB     44       DOPC     H5X      HAL2     0.900000E-01   1.00800           0
      6534 MEMB     44       DOPC     H5Y      HAL2     0.900000E-01   1.00800           0
      6535 MEMB     44       DOPC     C36      CTL2    -0.180000       12.0110           0
      6536 MEMB     44       DOPC     H6X      HAL2     0.900000E-01   1.00800           0
      6537 MEMB     44       DOPC     H6Y      HAL2     0.900000E-01   1.00800           0
      6538 MEMB     44       DOPC     C37      CTL2    -0.180000       12.0110           0
      6539 MEMB     44       DOPC     H7X      HAL2     0.900000E-01   1.00800           0
      6540 MEMB     44       DOPC     H7Y      HAL2     0.900000E-01   1.00800           0
      6541 MEMB     44       DOPC     C38      CTL2    -0.180000       12.0110           0
      6542 MEMB     44       DOPC     H8X      HAL2     0.900000E-01   1.00800           0
      6543 MEMB     44       DOPC     H8Y      HAL2     0.900000E-01   1.00800           0
      6544 MEMB     44       DOPC     C39      CEL1    -0.150000       12.0110           0
      6545 MEMB     44       DOPC     H9X      HEL1     0.150000       1.00800           0
      6546 MEMB     44       DOPC     C310     CEL1    -0.150000       12.0110           0
      6547 MEMB     44       DOPC     H10X     HEL1     0.150000       1.00800           0
      6548 MEMB     44       DOPC     C311     CTL2    -0.180000       12.0110           0
      6549 MEMB     44       DOPC     H11X     HAL2     0.900000E-01   1.00800           0
      6550 MEMB     44       DOPC     H11Y     HAL2     0.900000E-01   1.00800           0
      6551 MEMB     44       DOPC     C312     CTL2    -0.180000       12.0110           0
      6552 MEMB     44       DOPC     H12X     HAL2     0.900000E-01   1.00800           0
      6553 MEMB     44       DOPC     H12Y     HAL2     0.900000E-01   1.00800           0
      6554 MEMB     44       DOPC     C313     CTL2    -0.180000       12.0110           0
      6555 MEMB     44       DOPC     H13X     HAL2     0.900000E-01   1.00800           0
      6556 MEMB     44       DOPC     H13Y     HAL2     0.900000E-01   1.00800           0
      6557 MEMB     44       DOPC     C314     CTL2    -0.180000       12.0110           0
      6558 MEMB     44       DOPC     H14X     HAL2     0.900000E-01   1.00800           0
      6559 MEMB     44       DOPC     H14Y     HAL2     0.900000E-01   1.00800           0
      6560 MEMB     44       DOPC     C315     CTL2    -0.180000       12.0110           0
      6561 MEMB     44       DOPC     H15X     HAL2     0.900000E-01   1.00800           0
      6562 MEMB     44       DOPC     H15Y     HAL2     0.900000E-01   1.00800           0
      6563 MEMB     44       DOPC     C316     CTL2    -0.180000       12.0110           0
      6564 MEMB     44       DOPC     H16X     HAL2     0.900000E-01   1.00800           0
      6565 MEMB     44       DOPC     H16Y     HAL2     0.900000E-01   1.00800           0
      6566 MEMB     44       DOPC     C317     CTL2    -0.180000       12.0110           0
      6567 MEMB     44       DOPC     H17X     HAL2     0.900000E-01   1.00800           0
      6568 MEMB     44       DOPC     H17Y     HAL2     0.900000E-01   1.00800           0
      6569 MEMB     44       DOPC     C318     CTL3    -0.270000       12.0110           0
      6570 MEMB     44       DOPC     H18X     HAL3     0.900000E-01   1.00800           0
      6571 MEMB     44       DOPC     H18Y     HAL3     0.900000E-01   1.00800           0
      6572 MEMB     44       DOPC     H18Z     HAL3     0.900000E-01   1.00800           0
      6573 MEMB     45       DOPC     N        NTL     -0.600000       14.0070           0
      6574 MEMB     45       DOPC     C12      CTL2    -0.100000       12.0110           0
      6575 MEMB     45       DOPC     H12A     HL       0.250000       1.00800           0
      6576 MEMB     45       DOPC     H12B     HL       0.250000       1.00800           0
      6577 MEMB     45       DOPC     C13      CTL5    -0.350000       12.0110           0
      6578 MEMB     45       DOPC     H13A     HL       0.250000       1.00800           0
      6579 MEMB     45       DOPC     H13B     HL       0.250000       1.00800           0
      6580 MEMB     45       DOPC     H13C     HL       0.250000       1.00800           0
      6581 MEMB     45       DOPC     C14      CTL5    -0.350000       12.0110           0
      6582 MEMB     45       DOPC     H14A     HL       0.250000       1.00800           0
      6583 MEMB     45       DOPC     H14B     HL       0.250000       1.00800           0
      6584 MEMB     45       DOPC     H14C     HL       0.250000       1.00800           0
      6585 MEMB     45       DOPC     C15      CTL5    -0.350000       12.0110           0
      6586 MEMB     45       DOPC     H15A     HL       0.250000       1.00800           0
      6587 MEMB     45       DOPC     H15B     HL       0.250000       1.00800           0
      6588 MEMB     45       DOPC     H15C     HL       0.250000       1.00800           0
      6589 MEMB     45       DOPC     C11      CTL2    -0.800000E-01   12.0110           0
      6590 MEMB     45       DOPC     H11A     HAL2     0.900000E-01   1.00800           0
      6591 MEMB     45       DOPC     H11B     HAL2     0.900000E-01   1.00800           0
      6592 MEMB     45       DOPC     P        PL        1.50000       30.9740           0
      6593 MEMB     45       DOPC     O13      O2L     -0.780000       15.9994           0
      6594 MEMB     45       DOPC     O14      O2L     -0.780000       15.9994           0
      6595 MEMB     45       DOPC     O12      OSLP    -0.570000       15.9994           0
      6596 MEMB     45       DOPC     O11      OSLP    -0.570000       15.9994           0
      6597 MEMB     45       DOPC     C1       CTL2    -0.800000E-01   12.0110           0
      6598 MEMB     45       DOPC     HA       HAL2     0.900000E-01   1.00800           0
      6599 MEMB     45       DOPC     HB       HAL2     0.900000E-01   1.00800           0
      6600 MEMB     45       DOPC     C2       CTL1     0.170000       12.0110           0
      6601 MEMB     45       DOPC     HS       HAL1     0.900000E-01   1.00800           0
      6602 MEMB     45       DOPC     O21      OSL     -0.490000       15.9994           0
      6603 MEMB     45       DOPC     C21      CL       0.900000       12.0110           0
      6604 MEMB     45       DOPC     O22      OBL     -0.630000       15.9994           0
      6605 MEMB     45       DOPC     C22      CTL2    -0.220000       12.0110           0
      6606 MEMB     45       DOPC     H2R      HAL2     0.900000E-01   1.00800           0
      6607 MEMB     45       DOPC     H2S      HAL2     0.900000E-01   1.00800           0
      6608 MEMB     45       DOPC     C3       CTL2     0.800000E-01   12.0110           0
      6609 MEMB     45       DOPC     HX       HAL2     0.900000E-01   1.00800           0
      6610 MEMB     45       DOPC     HY       HAL2     0.900000E-01   1.00800           0
      6611 MEMB     45       DOPC     O31      OSL     -0.490000       15.9994           0
      6612 MEMB     45       DOPC     C31      CL       0.900000       12.0110           0
      6613 MEMB     45       DOPC     O32      OBL     -0.630000       15.9994           0
      6614 MEMB     45       DOPC     C32      CTL2    -0.220000       12.0110           0
      6615 MEMB     45       DOPC     H2X      HAL2     0.900000E-01   1.00800           0
      6616 MEMB     45       DOPC     H2Y      HAL2     0.900000E-01   1.00800           0
      6617 MEMB     45       DOPC     C23      CTL2    -0.180000       12.0110           0
      6618 MEMB     45       DOPC     H3R      HAL2     0.900000E-01   1.00800           0
      6619 MEMB     45       DOPC     H3S      HAL2     0.900000E-01   1.00800           0
      6620 MEMB     45       DOPC     C24      CTL2    -0.180000       12.0110           0
      6621 MEMB     45       DOPC     H4R      HAL2     0.900000E-01   1.00800           0
      6622 MEMB     45       DOPC     H4S      HAL2     0.900000E-01   1.00800           0
      6623 MEMB     45       DOPC     C25      CTL2    -0.180000       12.0110           0
      6624 MEMB     45       DOPC     H5R      HAL2     0.900000E-01   1.00800           0
      6625 MEMB     45       DOPC     H5S      HAL2     0.900000E-01   1.00800           0
      6626 MEMB     45       DOPC     C26      CTL2    -0.180000       12.0110           0
      6627 MEMB     45       DOPC     H6R      HAL2     0.900000E-01   1.00800           0
      6628 MEMB     45       DOPC     H6S      HAL2     0.900000E-01   1.00800           0
      6629 MEMB     45       DOPC     C27      CTL2    -0.180000       12.0110           0
      6630 MEMB     45       DOPC     H7R      HAL2     0.900000E-01   1.00800           0
      6631 MEMB     45       DOPC     H7S      HAL2     0.900000E-01   1.00800           0
      6632 MEMB     45       DOPC     C28      CTL2    -0.180000       12.0110           0
      6633 MEMB     45       DOPC     H8R      HAL2     0.900000E-01   1.00800           0
      6634 MEMB     45       DOPC     H8S      HAL2     0.900000E-01   1.00800           0
      6635 MEMB     45       DOPC     C29      CEL1    -0.150000       12.0110           0
      6636 MEMB     45       DOPC     H9R      HEL1     0.150000       1.00800           0
      6637 MEMB     45       DOPC     C210     CEL1    -0.150000       12.0110           0
      6638 MEMB     45       DOPC     H10R     HEL1     0.150000       1.00800           0
      6639 MEMB     45       DOPC     C211     CTL2    -0.180000       12.0110           0
      6640 MEMB     45       DOPC     H11R     HAL2     0.900000E-01   1.00800           0
      6641 MEMB     45       DOPC     H11S     HAL2     0.900000E-01   1.00800           0
      6642 MEMB     45       DOPC     C212     CTL2    -0.180000       12.0110           0
      6643 MEMB     45       DOPC     H12R     HAL2     0.900000E-01   1.00800           0
      6644 MEMB     45       DOPC     H12S     HAL2     0.900000E-01   1.00800           0
      6645 MEMB     45       DOPC     C213     CTL2    -0.180000       12.0110           0
      6646 MEMB     45       DOPC     H13R     HAL2     0.900000E-01   1.00800           0
      6647 MEMB     45       DOPC     H13S     HAL2     0.900000E-01   1.00800           0
      6648 MEMB     45       DOPC     C214     CTL2    -0.180000       12.0110           0
      6649 MEMB     45       DOPC     H14R     HAL2     0.900000E-01   1.00800           0
      6650 MEMB     45       DOPC     H14S     HAL2     0.900000E-01   1.00800           0
      6651 MEMB     45       DOPC     C215     CTL2    -0.180000       12.0110           0
      6652 MEMB     45       DOPC     H15R     HAL2     0.900000E-01   1.00800           0
      6653 MEMB     45       DOPC     H15S     HAL2     0.900000E-01   1.00800           0
      6654 MEMB     45       DOPC     C216     CTL2    -0.180000       12.0110           0
      6655 MEMB     45       DOPC     H16R     HAL2     0.900000E-01   1.00800           0
      6656 MEMB     45       DOPC     H16S     HAL2     0.900000E-01   1.00800           0
      6657 MEMB     45       DOPC     C217     CTL2    -0.180000       12.0110           0
      6658 MEMB     45       DOPC     H17R     HAL2     0.900000E-01   1.00800           0
      6659 MEMB     45       DOPC     H17S     HAL2     0.900000E-01   1.00800           0
      6660 MEMB     45       DOPC     C218     CTL3    -0.270000       12.0110           0
      6661 MEMB     45       DOPC     H18R     HAL3     0.900000E-01   1.00800           0
      6662 MEMB     45       DOPC     H18S     HAL3     0.900000E-01   1.00800           0
      6663 MEMB     45       DOPC     H18T     HAL3     0.900000E-01   1.00800           0
      6664 MEMB     45       DOPC     C33      CTL2    -0.180000       12.0110           0
      6665 MEMB     45       DOPC     H3X      HAL2     0.900000E-01   1.00800           0
      6666 MEMB     45       DOPC     H3Y      HAL2     0.900000E-01   1.00800           0
      6667 MEMB     45       DOPC     C34      CTL2    -0.180000       12.0110           0
      6668 MEMB     45       DOPC     H4X      HAL2     0.900000E-01   1.00800           0
      6669 MEMB     45       DOPC     H4Y      HAL2     0.900000E-01   1.00800           0
      6670 MEMB     45       DOPC     C35      CTL2    -0.180000       12.0110           0
      6671 MEMB     45       DOPC     H5X      HAL2     0.900000E-01   1.00800           0
      6672 MEMB     45       DOPC     H5Y      HAL2     0.900000E-01   1.00800           0
      6673 MEMB     45       DOPC     C36      CTL2    -0.180000       12.0110           0
      6674 MEMB     45       DOPC     H6X      HAL2     0.900000E-01   1.00800           0
      6675 MEMB     45       DOPC     H6Y      HAL2     0.900000E-01   1.00800           0
      6676 MEMB     45       DOPC     C37      CTL2    -0.180000       12.0110           0
      6677 MEMB     45       DOPC     H7X      HAL2     0.900000E-01   1.00800           0
      6678 MEMB     45       DOPC     H7Y      HAL2     0.900000E-01   1.00800           0
      6679 MEMB     45       DOPC     C38      CTL2    -0.180000       12.0110           0
      6680 MEMB     45       DOPC     H8X      HAL2     0.900000E-01   1.00800           0
      6681 MEMB     45       DOPC     H8Y      HAL2     0.900000E-01   1.00800           0
      6682 MEMB     45       DOPC     C39      CEL1    -0.150000       12.0110           0
      6683 MEMB     45       DOPC     H9X      HEL1     0.150000       1.00800           0
      6684 MEMB     45       DOPC     C310     CEL1    -0.150000       12.0110           0
      6685 MEMB     45       DOPC     H10X     HEL1     0.150000       1.00800           0
      6686 MEMB     45       DOPC     C311     CTL2    -0.180000       12.0110           0
      6687 MEMB     45       DOPC     H11X     HAL2     0.900000E-01   1.00800           0
      6688 MEMB     45       DOPC     H11Y     HAL2     0.900000E-01   1.00800           0
      6689 MEMB     45       DOPC     C312     CTL2    -0.180000       12.0110           0
      6690 MEMB     45       DOPC     H12X     HAL2     0.900000E-01   1.00800           0
      6691 MEMB     45       DOPC     H12Y     HAL2     0.900000E-01   1.00800           0
      6692 MEMB     45       DOPC     C313     CTL2    -0.180000       12.0110           0
      6693 MEMB     45       DOPC     H13X     HAL2     0.900000E-01   1.00800           0
      6694 MEMB     45       DOPC     H13Y     HAL2     0.900000E-01   1.00800           0
      6695 MEMB     45       DOPC     C314     CTL2    -0.180000       12.0110           0
      6696 MEMB     45       DOPC     H14X     HAL2     0.900000E-01   1.00800           0
      6697 MEMB     45       DOPC     H14Y     HAL2     0.900000E-01   1.00800           0
      6698 MEMB     45       DOPC     C315     CTL2    -0.180000       12.0110           0
      6699 MEMB     45       DOPC     H15X     HAL2     0.900000E-01   1.00800           0
      6700 MEMB     45       DOPC     H15Y     HAL2     0.900000E-01   1.00800           0
      6701 MEMB     45       DOPC     C316     CTL2    -0.180000       12.0110           0
      6702 MEMB     45       DOPC     H16X     HAL2     0.900000E-01   1.00800           0
      6703 MEMB     45       DOPC     H16Y     HAL2     0.900000E-01   1.00800           0
      6704 MEMB     45       DOPC     C317     CTL2    -0.180000       12.0110           0
      6705 MEMB     45       DOPC     H17X     HAL2     0.900000E-01   1.00800           0
      6706 MEMB     45       DOPC     H17Y     HAL2     0.900000E-01   1.00800           0
      6707 MEMB     45       DOPC     C318     CTL3    -0.270000       12.0110           0
      6708 MEMB     45       DOPC     H18X     HAL3     0.900000E-01   1.00800           0
      6709 MEMB     45       DOPC     H18Y     HAL3     0.900000E-01   1.00800           0
      6710 MEMB     45       DOPC     H18Z     HAL3     0.900000E-01   1.00800           0
      6711 MEMB     46       DOPC     N        NTL     -0.600000       14.0070           0
      6712 MEMB     46       DOPC     C12      CTL2    -0.100000       12.0110           0
      6713 MEMB     46       DOPC     H12A     HL       0.250000       1.00800           0
      6714 MEMB     46       DOPC     H12B     HL       0.250000       1.00800           0
      6715 MEMB     46       DOPC     C13      CTL5    -0.350000       12.0110           0
      6716 MEMB     46       DOPC     H13A     HL       0.250000       1.00800           0
      6717 MEMB     46       DOPC     H13B     HL       0.250000       1.00800           0
      6718 MEMB     46       DOPC     H13C     HL       0.250000       1.00800           0
      6719 MEMB     46       DOPC     C14      CTL5    -0.350000       12.0110           0
      6720 MEMB     46       DOPC     H14A     HL       0.250000       1.00800           0
      6721 MEMB     46       DOPC     H14B     HL       0.250000       1.00800           0
      6722 MEMB     46       DOPC     H14C     HL       0.250000       1.00800           0
      6723 MEMB     46       DOPC     C15      CTL5    -0.350000       12.0110           0
      6724 MEMB     46       DOPC     H15A     HL       0.250000       1.00800           0
      6725 MEMB     46       DOPC     H15B     HL       0.250000       1.00800           0
      6726 MEMB     46       DOPC     H15C     HL       0.250000       1.00800           0
      6727 MEMB     46       DOPC     C11      CTL2    -0.800000E-01   12.0110           0
      6728 MEMB     46       DOPC     H11A     HAL2     0.900000E-01   1.00800           0
      6729 MEMB     46       DOPC     H11B     HAL2     0.900000E-01   1.00800           0
      6730 MEMB     46       DOPC     P        PL        1.50000       30.9740           0
      6731 MEMB     46       DOPC     O13      O2L     -0.780000       15.9994           0
      6732 MEMB     46       DOPC     O14      O2L     -0.780000       15.9994           0
      6733 MEMB     46       DOPC     O12      OSLP    -0.570000       15.9994           0
      6734 MEMB     46       DOPC     O11      OSLP    -0.570000       15.9994           0
      6735 MEMB     46       DOPC     C1       CTL2    -0.800000E-01   12.0110           0
      6736 MEMB     46       DOPC     HA       HAL2     0.900000E-01   1.00800           0
      6737 MEMB     46       DOPC     HB       HAL2     0.900000E-01   1.00800           0
      6738 MEMB     46       DOPC     C2       CTL1     0.170000       12.0110           0
      6739 MEMB     46       DOPC     HS       HAL1     0.900000E-01   1.00800           0
      6740 MEMB     46       DOPC     O21      OSL     -0.490000       15.9994           0
      6741 MEMB     46       DOPC     C21      CL       0.900000       12.0110           0
      6742 MEMB     46       DOPC     O22      OBL     -0.630000       15.9994           0
      6743 MEMB     46       DOPC     C22      CTL2    -0.220000       12.0110           0
      6744 MEMB     46       DOPC     H2R      HAL2     0.900000E-01   1.00800           0
      6745 MEMB     46       DOPC     H2S      HAL2     0.900000E-01   1.00800           0
      6746 MEMB     46       DOPC     C3       CTL2     0.800000E-01   12.0110           0
      6747 MEMB     46       DOPC     HX       HAL2     0.900000E-01   1.00800           0
      6748 MEMB     46       DOPC     HY       HAL2     0.900000E-01   1.00800           0
      6749 MEMB     46       DOPC     O31      OSL     -0.490000       15.9994           0
      6750 MEMB     46       DOPC     C31      CL       0.900000       12.0110           0
      6751 MEMB     46       DOPC     O32      OBL     -0.630000       15.9994           0
      6752 MEMB     46       DOPC     C32      CTL2    -0.220000       12.0110           0
      6753 MEMB     46       DOPC     H2X      HAL2     0.900000E-01   1.00800           0
      6754 MEMB     46       DOPC     H2Y      HAL2     0.900000E-01   1.00800           0
      6755 MEMB     46       DOPC     C23      CTL2    -0.180000       12.0110           0
      6756 MEMB     46       DOPC     H3R      HAL2     0.900000E-01   1.00800           0
      6757 MEMB     46       DOPC     H3S      HAL2     0.900000E-01   1.00800           0
      6758 MEMB     46       DOPC     C24      CTL2    -0.180000       12.0110           0
      6759 MEMB     46       DOPC     H4R      HAL2     0.900000E-01   1.00800           0
      6760 MEMB     46       DOPC     H4S      HAL2     0.900000E-01   1.00800           0
      6761 MEMB     46       DOPC     C25      CTL2    -0.180000       12.0110           0
      6762 MEMB     46       DOPC     H5R      HAL2     0.900000E-01   1.00800           0
      6763 MEMB     46       DOPC     H5S      HAL2     0.900000E-01   1.00800           0
      6764 MEMB     46       DOPC     C26      CTL2    -0.180000       12.0110           0
      6765 MEMB     46       DOPC     H6R      HAL2     0.900000E-01   1.00800           0
      6766 MEMB     46       DOPC     H6S      HAL2     0.900000E-01   1.00800           0
      6767 MEMB     46       DOPC     C27      CTL2    -0.180000       12.0110           0
      6768 MEMB     46       DOPC     H7R      HAL2     0.900000E-01   1.00800           0
      6769 MEMB     46       DOPC     H7S      HAL2     0.900000E-01   1.00800           0
      6770 MEMB     46       DOPC     C28      CTL2    -0.180000       12.0110           0
      6771 MEMB     46       DOPC     H8R      HAL2     0.900000E-01   1.00800           0
      6772 MEMB     46       DOPC     H8S      HAL2     0.900000E-01   1.00800           0
      6773 MEMB     46       DOPC     C29      CEL1    -0.150000       12.0110           0
      6774 MEMB     46       DOPC     H9R      HEL1     0.150000       1.00800           0
      6775 MEMB     46       DOPC     C210     CEL1    -0.150000       12.0110           0
      6776 MEMB     46       DOPC     H10R     HEL1     0.150000       1.00800           0
      6777 MEMB     46       DOPC     C211     CTL2    -0.180000       12.0110           0
      6778 MEMB     46       DOPC     H11R     HAL2     0.900000E-01   1.00800           0
      6779 MEMB     46       DOPC     H11S     HAL2     0.900000E-01   1.00800           0
      6780 MEMB     46       DOPC     C212     CTL2    -0.180000       12.0110           0
      6781 MEMB     46       DOPC     H12R     HAL2     0.900000E-01   1.00800           0
      6782 MEMB     46       DOPC     H12S     HAL2     0.900000E-01   1.00800           0
      6783 MEMB     46       DOPC     C213     CTL2    -0.180000       12.0110           0
      6784 MEMB     46       DOPC     H13R     HAL2     0.900000E-01   1.00800           0
      6785 MEMB     46       DOPC     H13S     HAL2     0.900000E-01   1.00800           0
      6786 MEMB     46       DOPC     C214     CTL2    -0.180000       12.0110           0
      6787 MEMB     46       DOPC     H14R     HAL2     0.900000E-01   1.00800           0
      6788 MEMB     46       DOPC     H14S     HAL2     0.900000E-01   1.00800           0
      6789 MEMB     46       DOPC     C215     CTL2    -0.180000       12.0110           0
      6790 MEMB     46       DOPC     H15R     HAL2     0.900000E-01   1.00800           0
      6791 MEMB     46       DOPC     H15S     HAL2     0.900000E-01   1.00800           0
      6792 MEMB     46       DOPC     C216     CTL2    -0.180000       12.0110           0
      6793 MEMB     46       DOPC     H16R     HAL2     0.900000E-01   1.00800           0
      6794 MEMB     46       DOPC     H16S     HAL2     0.900000E-01   1.00800           0
      6795 MEMB     46       DOPC     C217     CTL2    -0.180000       12.0110           0
      6796 MEMB     46       DOPC     H17R     HAL2     0.900000E-01   1.00800           0
      6797 MEMB     46       DOPC     H17S     HAL2     0.900000E-01   1.00800           0
      6798 MEMB     46       DOPC     C218     CTL3    -0.270000       12.0110           0
      6799 MEMB     46       DOPC     H18R     HAL3     0.900000E-01   1.00800           0
      6800 MEMB     46       DOPC     H18S     HAL3     0.900000E-01   1.00800           0
      6801 MEMB     46       DOPC     H18T     HAL3     0.900000E-01   1.00800           0
      6802 MEMB     46       DOPC     C33      CTL2    -0.180000       12.0110           0
      6803 MEMB     46       DOPC     H3X      HAL2     0.900000E-01   1.00800           0
      6804 MEMB     46       DOPC     H3Y      HAL2     0.900000E-01   1.00800           0
      6805 MEMB     46       DOPC     C34      CTL2    -0.180000       12.0110           0
      6806 MEMB     46       DOPC     H4X      HAL2     0.900000E-01   1.00800           0
      6807 MEMB     46       DOPC     H4Y      HAL2     0.900000E-01   1.00800           0
      6808 MEMB     46       DOPC     C35      CTL2    -0.180000       12.0110           0
      6809 MEMB     46       DOPC     H5X      HAL2     0.900000E-01   1.00800           0
      6810 MEMB     46       DOPC     H5Y      HAL2     0.900000E-01   1.00800           0
      6811 MEMB     46       DOPC     C36      CTL2    -0.180000       12.0110           0
      6812 MEMB     46       DOPC     H6X      HAL2     0.900000E-01   1.00800           0
      6813 MEMB     46       DOPC     H6Y      HAL2     0.900000E-01   1.00800           0
      6814 MEMB     46       DOPC     C37      CTL2    -0.180000       12.0110           0
      6815 MEMB     46       DOPC     H7X      HAL2     0.900000E-01   1.00800           0
      6816 MEMB     46       DOPC     H7Y      HAL2     0.900000E-01   1.00800           0
      6817 MEMB     46       DOPC     C38      CTL2    -0.180000       12.0110           0
      6818 MEMB     46       DOPC     H8X      HAL2     0.900000E-01   1.00800           0
      6819 MEMB     46       DOPC     H8Y      HAL2     0.900000E-01   1.00800           0
      6820 MEMB     46       DOPC     C39      CEL1    -0.150000       12.0110           0
      6821 MEMB     46       DOPC     H9X      HEL1     0.150000       1.00800           0
      6822 MEMB     46       DOPC     C310     CEL1    -0.150000       12.0110           0
      6823 MEMB     46       DOPC     H10X     HEL1     0.150000       1.00800           0
      6824 MEMB     46       DOPC     C311     CTL2    -0.180000       12.0110           0
      6825 MEMB     46       DOPC     H11X     HAL2     0.900000E-01   1.00800           0
      6826 MEMB     46       DOPC     H11Y     HAL2     0.900000E-01   1.00800           0
      6827 MEMB     46       DOPC     C312     CTL2    -0.180000       12.0110           0
      6828 MEMB     46       DOPC     H12X     HAL2     0.900000E-01   1.00800           0
      6829 MEMB     46       DOPC     H12Y     HAL2     0.900000E-01   1.00800           0
      6830 MEMB     46       DOPC     C313     CTL2    -0.180000       12.0110           0
      6831 MEMB     46       DOPC     H13X     HAL2     0.900000E-01   1.00800           0
      6832 MEMB     46       DOPC     H13Y     HAL2     0.900000E-01   1.00800           0
      6833 MEMB     46       DOPC     C314     CTL2    -0.180000       12.0110           0
      6834 MEMB     46       DOPC     H14X     HAL2     0.900000E-01   1.00800           0
      6835 MEMB     46       DOPC     H14Y     HAL2     0.900000E-01   1.00800           0
      6836 MEMB     46       DOPC     C315     CTL2    -0.180000       12.0110           0
      6837 MEMB     46       DOPC     H15X     HAL2     0.900000E-01   1.00800           0
      6838 MEMB     46       DOPC     H15Y     HAL2     0.900000E-01   1.00800           0
      6839 MEMB     46       DOPC     C316     CTL2    -0.180000       12.0110           0
      6840 MEMB     46       DOPC     H16X     HAL2     0.900000E-01   1.00800           0
      6841 MEMB     46       DOPC     H16Y     HAL2     0.900000E-01   1.00800           0
      6842 MEMB     46       DOPC     C317     CTL2    -0.180000       12.0110           0
      6843 MEMB     46       DOPC     H17X     HAL2     0.900000E-01   1.00800           0
      6844 MEMB     46       DOPC     H17Y     HAL2     0.900000E-01   1.00800           0
      6845 MEMB     46       DOPC     C318     CTL3    -0.270000       12.0110           0
      6846 MEMB     46       DOPC     H18X     HAL3     0.900000E-01   1.00800           0
      6847 MEMB     46       DOPC     H18Y     HAL3     0.900000E-01   1.00800           0
      6848 MEMB     46       DOPC     H18Z     HAL3     0.900000E-01   1.00800           0
      6849 MEMB     47       DOPC     N        NTL     -0.600000       14.0070           0
      6850 MEMB     47       DOPC     C12      CTL2    -0.100000       12.0110           0
      6851 MEMB     47       DOPC     H12A     HL       0.250000       1.00800           0
      6852 MEMB     47       DOPC     H12B     HL       0.250000       1.00800           0
      6853 MEMB     47       DOPC     C13      CTL5    -0.350000       12.0110           0
      6854 MEMB     47       DOPC     H13A     HL       0.250000       1.00800           0
      6855 MEMB     47       DOPC     H13B     HL       0.250000       1.00800           0
      6856 MEMB     47       DOPC     H13C     HL       0.250000       1.00800           0
      6857 MEMB     47       DOPC     C14      CTL5    -0.350000       12.0110           0
      6858 MEMB     47       DOPC     H14A     HL       0.250000       1.00800           0
      6859 MEMB     47       DOPC     H14B     HL       0.250000       1.00800           0
      6860 MEMB     47       DOPC     H14C     HL       0.250000       1.00800           0
      6861 MEMB     47       DOPC     C15      CTL5    -0.350000       12.0110           0
      6862 MEMB     47       DOPC     H15A     HL       0.250000       1.00800           0
      6863 MEMB     47       DOPC     H15B     HL       0.250000       1.00800           0
      6864 MEMB     47       DOPC     H15C     HL       0.250000       1.00800           0
      6865 MEMB     47       DOPC     C11      CTL2    -0.800000E-01   12.0110           0
      6866 MEMB     47       DOPC     H11A     HAL2     0.900000E-01   1.00800           0
      6867 MEMB     47       DOPC     H11B     HAL2     0.900000E-01   1.00800           0
      6868 MEMB     47       DOPC     P        PL        1.50000       30.9740           0
      6869 MEMB     47       DOPC     O13      O2L     -0.780000       15.9994           0
      6870 MEMB     47       DOPC     O14      O2L     -0.780000       15.9994           0
      6871 MEMB     47       DOPC     O12      OSLP    -0.570000       15.9994           0
      6872 MEMB     47       DOPC     O11      OSLP    -0.570000       15.9994           0
      6873 MEMB     47       DOPC     C1       CTL2    -0.800000E-01   12.0110           0
      6874 MEMB     47       DOPC     HA       HAL2     0.900000E-01   1.00800           0
      6875 MEMB     47       DOPC     HB       HAL2     0.900000E-01   1.00800           0
      6876 MEMB     47       DOPC     C2       CTL1     0.170000       12.0110           0
      6877 MEMB     47       DOPC     HS       HAL1     0.900000E-01   1.00800           0
      6878 MEMB     47       DOPC     O21      OSL     -0.490000       15.9994           0
      6879 MEMB     47       DOPC     C21      CL       0.900000       12.0110           0
      6880 MEMB     47       DOPC     O22      OBL     -0.630000       15.9994           0
      6881 MEMB     47       DOPC     C22      CTL2    -0.220000       12.0110           0
      6882 MEMB     47       DOPC     H2R      HAL2     0.900000E-01   1.00800           0
      6883 MEMB     47       DOPC     H2S      HAL2     0.900000E-01   1.00800           0
      6884 MEMB     47       DOPC     C3       CTL2     0.800000E-01   12.0110           0
      6885 MEMB     47       DOPC     HX       HAL2     0.900000E-01   1.00800           0
      6886 MEMB     47       DOPC     HY       HAL2     0.900000E-01   1.00800           0
      6887 MEMB     47       DOPC     O31      OSL     -0.490000       15.9994           0
      6888 MEMB     47       DOPC     C31      CL       0.900000       12.0110           0
      6889 MEMB     47       DOPC     O32      OBL     -0.630000       15.9994           0
      6890 MEMB     47       DOPC     C32      CTL2    -0.220000       12.0110           0
      6891 MEMB     47       DOPC     H2X      HAL2     0.900000E-01   1.00800           0
      6892 MEMB     47       DOPC     H2Y      HAL2     0.900000E-01   1.00800           0
      6893 MEMB     47       DOPC     C23      CTL2    -0.180000       12.0110           0
      6894 MEMB     47       DOPC     H3R      HAL2     0.900000E-01   1.00800           0
      6895 MEMB     47       DOPC     H3S      HAL2     0.900000E-01   1.00800           0
      6896 MEMB     47       DOPC     C24      CTL2    -0.180000       12.0110           0
      6897 MEMB     47       DOPC     H4R      HAL2     0.900000E-01   1.00800           0
      6898 MEMB     47       DOPC     H4S      HAL2     0.900000E-01   1.00800           0
      6899 MEMB     47       DOPC     C25      CTL2    -0.180000       12.0110           0
      6900 MEMB     47       DOPC     H5R      HAL2     0.900000E-01   1.00800           0
      6901 MEMB     47       DOPC     H5S      HAL2     0.900000E-01   1.00800           0
      6902 MEMB     47       DOPC     C26      CTL2    -0.180000       12.0110           0
      6903 MEMB     47       DOPC     H6R      HAL2     0.900000E-01   1.00800           0
      6904 MEMB     47       DOPC     H6S      HAL2     0.900000E-01   1.00800           0
      6905 MEMB     47       DOPC     C27      CTL2    -0.180000       12.0110           0
      6906 MEMB     47       DOPC     H7R      HAL2     0.900000E-01   1.00800           0
      6907 MEMB     47       DOPC     H7S      HAL2     0.900000E-01   1.00800           0
      6908 MEMB     47       DOPC     C28      CTL2    -0.180000       12.0110           0
      6909 MEMB     47       DOPC     H8R      HAL2     0.900000E-01   1.00800           0
      6910 MEMB     47       DOPC     H8S      HAL2     0.900000E-01   1.00800           0
      6911 MEMB     47       DOPC     C29      CEL1    -0.150000       12.0110           0
      6912 MEMB     47       DOPC     H9R      HEL1     0.150000       1.00800           0
      6913 MEMB     47       DOPC     C210     CEL1    -0.150000       12.0110           0
      6914 MEMB     47       DOPC     H10R     HEL1     0.150000       1.00800           0
      6915 MEMB     47       DOPC     C211     CTL2    -0.180000       12.0110           0
      6916 MEMB     47       DOPC     H11R     HAL2     0.900000E-01   1.00800           0
      6917 MEMB     47       DOPC     H11S     HAL2     0.900000E-01   1.00800           0
      6918 MEMB     47       DOPC     C212     CTL2    -0.180000       12.0110           0
      6919 MEMB     47       DOPC     H12R     HAL2     0.900000E-01   1.00800           0
      6920 MEMB     47       DOPC     H12S     HAL2     0.900000E-01   1.00800           0
      6921 MEMB     47       DOPC     C213     CTL2    -0.180000       12.0110           0
      6922 MEMB     47       DOPC     H13R     HAL2     0.900000E-01   1.00800           0
      6923 MEMB     47       DOPC     H13S     HAL2     0.900000E-01   1.00800           0
      6924 MEMB     47       DOPC     C214     CTL2    -0.180000       12.0110           0
      6925 MEMB     47       DOPC     H14R     HAL2     0.900000E-01   1.00800           0
      6926 MEMB     47       DOPC     H14S     HAL2     0.900000E-01   1.00800           0
      6927 MEMB     47       DOPC     C215     CTL2    -0.180000       12.0110           0
      6928 MEMB     47       DOPC     H15R     HAL2     0.900000E-01   1.00800           0
      6929 MEMB     47       DOPC     H15S     HAL2     0.900000E-01   1.00800           0
      6930 MEMB     47       DOPC     C216     CTL2    -0.180000       12.0110           0
      6931 MEMB     47       DOPC     H16R     HAL2     0.900000E-01   1.00800           0
      6932 MEMB     47       DOPC     H16S     HAL2     0.900000E-01   1.00800           0
      6933 MEMB     47       DOPC     C217     CTL2    -0.180000       12.0110           0
      6934 MEMB     47       DOPC     H17R     HAL2     0.900000E-01   1.00800           0
      6935 MEMB     47       DOPC     H17S     HAL2     0.900000E-01   1.00800           0
      6936 MEMB     47       DOPC     C218     CTL3    -0.270000       12.0110           0
      6937 MEMB     47       DOPC     H18R     HAL3     0.900000E-01   1.00800           0
      6938 MEMB     47       DOPC     H18S     HAL3     0.900000E-01   1.00800           0
      6939 MEMB     47       DOPC     H18T     HAL3     0.900000E-01   1.00800           0
      6940 MEMB     47       DOPC     C33      CTL2    -0.180000       12.0110           0
      6941 MEMB     47       DOPC     H3X      HAL2     0.900000E-01   1.00800           0
      6942 MEMB     47       DOPC     H3Y      HAL2     0.900000E-01   1.00800           0
      6943 MEMB     47       DOPC     C34      CTL2    -0.180000       12.0110           0
      6944 MEMB     47       DOPC     H4X      HAL2     0.900000E-01   1.00800           0
      6945 MEMB     47       DOPC     H4Y      HAL2     0.900000E-01   1.00800           0
      6946 MEMB     47       DOPC     C35      CTL2    -0.180000       12.0110           0
      6947 MEMB     47       DOPC     H5X      HAL2     0.900000E-01   1.00800           0
      6948 MEMB     47       DOPC     H5Y      HAL2     0.900000E-01   1.00800           0
      6949 MEMB     47       DOPC     C36      CTL2    -0.180000       12.0110           0
      6950 MEMB     47       DOPC     H6X      HAL2     0.900000E-01   1.00800           0
      6951 MEMB     47       DOPC     H6Y      HAL2     0.900000E-01   1.00800           0
      6952 MEMB     47       DOPC     C37      CTL2    -0.180000       12.0110           0
      6953 MEMB     47       DOPC     H7X      HAL2     0.900000E-01   1.00800           0
      6954 MEMB     47       DOPC     H7Y      HAL2     0.900000E-01   1.00800           0
      6955 MEMB     47       DOPC     C38      CTL2    -0.180000       12.0110           0
      6956 MEMB     47       DOPC     H8X      HAL2     0.900000E-01   1.00800           0
      6957 MEMB     47       DOPC     H8Y      HAL2     0.900000E-01   1.00800           0
      6958 MEMB     47       DOPC     C39      CEL1    -0.150000       12.0110           0
      6959 MEMB     47       DOPC     H9X      HEL1     0.150000       1.00800           0
      6960 MEMB     47       DOPC     C310     CEL1    -0.150000       12.0110           0
      6961 MEMB     47       DOPC     H10X     HEL1     0.150000       1.00800           0
      6962 MEMB     47       DOPC     C311     CTL2    -0.180000       12.0110           0
      6963 MEMB     47       DOPC     H11X     HAL2     0.900000E-01   1.00800           0
      6964 MEMB     47       DOPC     H11Y     HAL2     0.900000E-01   1.00800           0
      6965 MEMB     47       DOPC     C312     CTL2    -0.180000       12.0110           0
      6966 MEMB     47       DOPC     H12X     HAL2     0.900000E-01   1.00800           0
      6967 MEMB     47       DOPC     H12Y     HAL2     0.900000E-01   1.00800           0
      6968 MEMB     47       DOPC     C313     CTL2    -0.180000       12.0110           0
      6969 MEMB     47       DOPC     H13X     HAL2     0.900000E-01   1.00800           0
      6970 MEMB     47       DOPC     H13Y     HAL2     0.900000E-01   1.00800           0
      6971 MEMB     47       DOPC     C314     CTL2    -0.180000       12.0110           0
      6972 MEMB     47       DOPC     H14X     HAL2     0.900000E-01   1.00800           0
      6973 MEMB     47       DOPC     H14Y     HAL2     0.900000E-01   1.00800           0
      6974 MEMB     47       DOPC     C315     CTL2    -0.180000       12.0110           0
      6975 MEMB     47       DOPC     H15X     HAL2     0.900000E-01   1.00800           0
      6976 MEMB     47       DOPC     H15Y     HAL2     0.900000E-01   1.00800           0
      6977 MEMB     47       DOPC     C316     CTL2    -0.180000       12.0110           0
      6978 MEMB     47       DOPC     H16X     HAL2     0.900000E-01   1.00800           0
      6979 MEMB     47       DOPC     H16Y     HAL2     0.900000E-01   1.00800           0
      6980 MEMB     47       DOPC     C317     CTL2    -0.180000       12.0110           0
      6981 MEMB     47       DOPC     H17X     HAL2     0.900000E-01   1.00800           0
      6982 MEMB     47       DOPC     H17Y     HAL2     0.900000E-01   1.00800           0
      6983 MEMB     47       DOPC     C318     CTL3    -0.270000       12.0110           0
      6984 MEMB     47       DOPC     H18X     HAL3     0.900000E-01   1.00800           0
      6985 MEMB     47       DOPC     H18Y     HAL3     0.900000E-01   1.00800           0
      6986 MEMB     47       DOPC     H18Z     HAL3     0.900000E-01   1.00800           0
      6987 MEMB     48       DOPC     N        NTL     -0.600000       14.0070           0
      6988 MEMB     48       DOPC     C12      CTL2    -0.100000       12.0110           0
      6989 MEMB     48       DOPC     H12A     HL       0.250000       1.00800           0
      6990 MEMB     48       DOPC     H12B     HL       0.250000       1.00800           0
      6991 MEMB     48       DOPC     C13      CTL5    -0.350000       12.0110           0
      6992 MEMB     48       DOPC     H13A     HL       0.250000       1.00800           0
      6993 MEMB     48       DOPC     H13B     HL       0.250000       1.00800           0
      6994 MEMB     48       DOPC     H13C     HL       0.250000       1.00800           0
      6995 MEMB     48       DOPC     C14      CTL5    -0.350000       12.0110           0
      6996 MEMB     48       DOPC     H14A     HL       0.250000       1.00800           0
      6997 MEMB     48       DOPC     H14B     HL       0.250000       1.00800           0
      6998 MEMB     48       DOPC     H14C     HL       0.250000       1.00800           0
      6999 MEMB     48       DOPC     C15      CTL5    -0.350000       12.0110           0
      7000 MEMB     48       DOPC     H15A     HL       0.250000       1.00800           0
      7001 MEMB     48       DOPC     H15B     HL       0.250000       1.00800           0
      7002 MEMB     48       DOPC     H15C     HL       0.250000       1.00800           0
      7003 MEMB     48       DOPC     C11      CTL2    -0.800000E-01   12.0110           0
      7004 MEMB     48       DOPC     H11A     HAL2     0.900000E-01   1.00800           0
      7005 MEMB     48       DOPC     H11B     HAL2     0.900000E-01   1.00800           0
      7006 MEMB     48       DOPC     P        PL        1.50000       30.9740           0
      7007 MEMB     48       DOPC     O13      O2L     -0.780000       15.9994           0
      7008 MEMB     48       DOPC     O14      O2L     -0.780000       15.9994           0
      7009 MEMB     48       DOPC     O12      OSLP    -0.570000       15.9994           0
      7010 MEMB     48       DOPC     O11      OSLP    -0.570000       15.9994           0
      7011 MEMB     48       DOPC     C1       CTL2    -0.800000E-01   12.0110           0
      7012 MEMB     48       DOPC     HA       HAL2     0.900000E-01   1.00800           0
      7013 MEMB     48       DOPC     HB       HAL2     0.900000E-01   1.00800           0
      7014 MEMB     48       DOPC     C2       CTL1     0.170000       12.0110           0
      7015 MEMB     48       DOPC     HS       HAL1     0.900000E-01   1.00800           0
      7016 MEMB     48       DOPC     O21      OSL     -0.490000       15.9994           0
      7017 MEMB     48       DOPC     C21      CL       0.900000       12.0110           0
      7018 MEMB     48       DOPC     O22      OBL     -0.630000       15.9994           0
      7019 MEMB     48       DOPC     C22      CTL2    -0.220000       12.0110           0
      7020 MEMB     48       DOPC     H2R      HAL2     0.900000E-01   1.00800           0
      7021 MEMB     48       DOPC     H2S      HAL2     0.900000E-01   1.00800           0
      7022 MEMB     48       DOPC     C3       CTL2     0.800000E-01   12.0110           0
      7023 MEMB     48       DOPC     HX       HAL2     0.900000E-01   1.00800           0
      7024 MEMB     48       DOPC     HY       HAL2     0.900000E-01   1.00800           0
      7025 MEMB     48       DOPC     O31      OSL     -0.490000       15.9994           0
      7026 MEMB     48       DOPC     C31      CL       0.900000       12.0110           0
      7027 MEMB     48       DOPC     O32      OBL     -0.630000       15.9994           0
      7028 MEMB     48       DOPC     C32      CTL2    -0.220000       12.0110           0
      7029 MEMB     48       DOPC     H2X      HAL2     0.900000E-01   1.00800           0
      7030 MEMB     48       DOPC     H2Y      HAL2     0.900000E-01   1.00800           0
      7031 MEMB     48       DOPC     C23      CTL2    -0.180000       12.0110           0
      7032 MEMB     48       DOPC     H3R      HAL2     0.900000E-01   1.00800           0
      7033 MEMB     48       DOPC     H3S      HAL2     0.900000E-01   1.00800           0
      7034 MEMB     48       DOPC     C24      CTL2    -0.180000       12.0110           0
      7035 MEMB     48       DOPC     H4R      HAL2     0.900000E-01   1.00800           0
      7036 MEMB     48       DOPC     H4S      HAL2     0.900000E-01   1.00800           0
      7037 MEMB     48       DOPC     C25      CTL2    -0.180000       12.0110           0
      7038 MEMB     48       DOPC     H5R      HAL2     0.900000E-01   1.00800           0
      7039 MEMB     48       DOPC     H5S      HAL2     0.900000E-01   1.00800           0
      7040 MEMB     48       DOPC     C26      CTL2    -0.180000       12.0110           0
      7041 MEMB     48       DOPC     H6R      HAL2     0.900000E-01   1.00800           0
      7042 MEMB     48       DOPC     H6S      HAL2     0.900000E-01   1.00800           0
      7043 MEMB     48       DOPC     C27      CTL2    -0.180000       12.0110           0
      7044 MEMB     48       DOPC     H7R      HAL2     0.900000E-01   1.00800           0
      7045 MEMB     48       DOPC     H7S      HAL2     0.900000E-01   1.00800           0
      7046 MEMB     48       DOPC     C28      CTL2    -0.180000       12.0110           0
      7047 MEMB     48       DOPC     H8R      HAL2     0.900000E-01   1.00800           0
      7048 MEMB     48       DOPC     H8S      HAL2     0.900000E-01   1.00800           0
      7049 MEMB     48       DOPC     C29      CEL1    -0.150000       12.0110           0
      7050 MEMB     48       DOPC     H9R      HEL1     0.150000       1.00800           0
      7051 MEMB     48       DOPC     C210     CEL1    -0.150000       12.0110           0
      7052 MEMB     48       DOPC     H10R     HEL1     0.150000       1.00800           0
      7053 MEMB     48       DOPC     C211     CTL2    -0.180000       12.0110           0
      7054 MEMB     48       DOPC     H11R     HAL2     0.900000E-01   1.00800           0
      7055 MEMB     48       DOPC     H11S     HAL2     0.900000E-01   1.00800           0
      7056 MEMB     48       DOPC     C212     CTL2    -0.180000       12.0110           0
      7057 MEMB     48       DOPC     H12R     HAL2     0.900000E-01   1.00800           0
      7058 MEMB     48       DOPC     H12S     HAL2     0.900000E-01   1.00800           0
      7059 MEMB     48       DOPC     C213     CTL2    -0.180000       12.0110           0
      7060 MEMB     48       DOPC     H13R     HAL2     0.900000E-01   1.00800           0
      7061 MEMB     48       DOPC     H13S     HAL2     0.900000E-01   1.00800           0
      7062 MEMB     48       DOPC     C214     CTL2    -0.180000       12.0110           0
      7063 MEMB     48       DOPC     H14R     HAL2     0.900000E-01   1.00800           0
      7064 MEMB     48       DOPC     H14S     HAL2     0.900000E-01   1.00800           0
      7065 MEMB     48       DOPC     C215     CTL2    -0.180000       12.0110           0
      7066 MEMB     48       DOPC     H15R     HAL2     0.900000E-01   1.00800           0
      7067 MEMB     48       DOPC     H15S     HAL2     0.900000E-01   1.00800           0
      7068 MEMB     48       DOPC     C216     CTL2    -0.180000       12.0110           0
      7069 MEMB     48       DOPC     H16R     HAL2     0.900000E-01   1.00800           0
      7070 MEMB     48       DOPC     H16S     HAL2     0.900000E-01   1.00800           0
      7071 MEMB     48       DOPC     C217     CTL2    -0.180000       12.0110           0
      7072 MEMB     48       DOPC     H17R     HAL2     0.900000E-01   1.00800           0
      7073 MEMB     48       DOPC     H17S     HAL2     0.900000E-01   1.00800           0
      7074 MEMB     48       DOPC     C218     CTL3    -0.270000       12.0110           0
      7075 MEMB     48       DOPC     H18R     HAL3     0.900000E-01   1.00800           0
      7076 MEMB     48       DOPC     H18S     HAL3     0.900000E-01   1.00800           0
      7077 MEMB     48       DOPC     H18T     HAL3     0.900000E-01   1.00800           0
      7078 MEMB     48       DOPC     C33      CTL2    -0.180000       12.0110           0
      7079 MEMB     48       DOPC     H3X      HAL2     0.900000E-01   1.00800           0
      7080 MEMB     48       DOPC     H3Y      HAL2     0.900000E-01   1.00800           0
      7081 MEMB     48       DOPC     C34      CTL2    -0.180000       12.0110           0
      7082 MEMB     48       DOPC     H4X      HAL2     0.900000E-01   1.00800           0
      7083 MEMB     48       DOPC     H4Y      HAL2     0.900000E-01   1.00800           0
      7084 MEMB     48       DOPC     C35      CTL2    -0.180000       12.0110           0
      7085 MEMB     48       DOPC     H5X      HAL2     0.900000E-01   1.00800           0
      7086 MEMB     48       DOPC     H5Y      HAL2     0.900000E-01   1.00800           0
      7087 MEMB     48       DOPC     C36      CTL2    -0.180000       12.0110           0
      7088 MEMB     48       DOPC     H6X      HAL2     0.900000E-01   1.00800           0
      7089 MEMB     48       DOPC     H6Y      HAL2     0.900000E-01   1.00800           0
      7090 MEMB     48       DOPC     C37      CTL2    -0.180000       12.0110           0
      7091 MEMB     48       DOPC     H7X      HAL2     0.900000E-01   1.00800           0
      7092 MEMB     48       DOPC     H7Y      HAL2     0.900000E-01   1.00800           0
      7093 MEMB     48       DOPC     C38      CTL2    -0.180000       12.0110           0
      7094 MEMB     48       DOPC     H8X      HAL2     0.900000E-01   1.00800           0
      7095 MEMB     48       DOPC     H8Y      HAL2     0.900000E-01   1.00800           0
      7096 MEMB     48       DOPC     C39      CEL1    -0.150000       12.0110           0
      7097 MEMB     48       DOPC     H9X      HEL1     0.150000       1.00800           0
      7098 MEMB     48       DOPC     C310     CEL1    -0.150000       12.0110           0
      7099 MEMB     48       DOPC     H10X     HEL1     0.150000       1.00800           0
      7100 MEMB     48       DOPC     C311     CTL2    -0.180000       12.0110           0
      7101 MEMB     48       DOPC     H11X     HAL2     0.900000E-01   1.00800           0
      7102 MEMB     48       DOPC     H11Y     HAL2     0.900000E-01   1.00800           0
      7103 MEMB     48       DOPC     C312     CTL2    -0.180000       12.0110           0
      7104 MEMB     48       DOPC     H12X     HAL2     0.900000E-01   1.00800           0
      7105 MEMB     48       DOPC     H12Y     HAL2     0.900000E-01   1.00800           0
      7106 MEMB     48       DOPC     C313     CTL2    -0.180000       12.0110           0
      7107 MEMB     48       DOPC     H13X     HAL2     0.900000E-01   1.00800           0
      7108 MEMB     48       DOPC     H13Y     HAL2     0.900000E-01   1.00800           0
      7109 MEMB     48       DOPC     C314     CTL2    -0.180000       12.0110           0
      7110 MEMB     48       DOPC     H14X     HAL2     0.900000E-01   1.00800           0
      7111 MEMB     48       DOPC     H14Y     HAL2     0.900000E-01   1.00800           0
      7112 MEMB     48       DOPC     C315     CTL2    -0.180000       12.0110           0
      7113 MEMB     48       DOPC     H15X     HAL2     0.900000E-01   1.00800           0
      7114 MEMB     48       DOPC     H15Y     HAL2     0.900000E-01   1.00800           0
      7115 MEMB     48       DOPC     C316     CTL2    -0.180000       12.0110           0
      7116 MEMB     48       DOPC     H16X     HAL2     0.900000E-01   1.00800           0
      7117 MEMB     48       DOPC     H16Y     HAL2     0.900000E-01   1.00800           0
      7118 MEMB     48       DOPC     C317     CTL2    -0.180000       12.0110           0
      7119 MEMB     48       DOPC     H17X     HAL2     0.900000E-01   1.00800           0
      7120 MEMB     48       DOPC     H17Y     HAL2     0.900000E-01   1.00800           0
      7121 MEMB     48       DOPC     C318     CTL3    -0.270000       12.0110           0
      7122 MEMB     48       DOPC     H18X     HAL3     0.900000E-01   1.00800           0
      7123 MEMB     48       DOPC     H18Y     HAL3     0.900000E-01   1.00800           0
      7124 MEMB     48       DOPC     H18Z     HAL3     0.900000E-01   1.00800           0
      7125 MEMB     49       DOPC     N        NTL     -0.600000       14.0070           0
      7126 MEMB     49       DOPC     C12      CTL2    -0.100000       12.0110           0
      7127 MEMB     49       DOPC     H12A     HL       0.250000       1.00800           0
      7128 MEMB     49       DOPC     H12B     HL       0.250000       1.00800           0
      7129 MEMB     49       DOPC     C13      CTL5    -0.350000       12.0110           0
      7130 MEMB     49       DOPC     H13A     HL       0.250000       1.00800           0
      7131 MEMB     49       DOPC     H13B     HL       0.250000       1.00800           0
      7132 MEMB     49       DOPC     H13C     HL       0.250000       1.00800           0
      7133 MEMB     49       DOPC     C14      CTL5    -0.350000       12.0110           0
      7134 MEMB     49       DOPC     H14A     HL       0.250000       1.00800           0
      7135 MEMB     49       DOPC     H14B     HL       0.250000       1.00800           0
      7136 MEMB     49       DOPC     H14C     HL       0.250000       1.00800           0
      7137 MEMB     49       DOPC     C15      CTL5    -0.350000       12.0110           0
      7138 MEMB     49       DOPC     H15A     HL       0.250000       1.00800           0
      7139 MEMB     49       DOPC     H15B     HL       0.250000       1.00800           0
      7140 MEMB     49       DOPC     H15C     HL       0.250000       1.00800           0
      7141 MEMB     49       DOPC     C11      CTL2    -0.800000E-01   12.0110           0
      7142 MEMB     49       DOPC     H11A     HAL2     0.900000E-01   1.00800           0
      7143 MEMB     49       DOPC     H11B     HAL2     0.900000E-01   1.00800           0
      7144 MEMB     49       DOPC     P        PL        1.50000       30.9740           0
      7145 MEMB     49       DOPC     O13      O2L     -0.780000       15.9994           0
      7146 MEMB     49       DOPC     O14      O2L     -0.780000       15.9994           0
      7147 MEMB     49       DOPC     O12      OSLP    -0.570000       15.9994           0
      7148 MEMB     49       DOPC     O11      OSLP    -0.570000       15.9994           0
      7149 MEMB     49       DOPC     C1       CTL2    -0.800000E-01   12.0110           0
      7150 MEMB     49       DOPC     HA       HAL2     0.900000E-01   1.00800           0
      7151 MEMB     49       DOPC     HB       HAL2     0.900000E-01   1.00800           0
      7152 MEMB     49       DOPC     C2       CTL1     0.170000       12.0110           0
      7153 MEMB     49       DOPC     HS       HAL1     0.900000E-01   1.00800           0
      7154 MEMB     49       DOPC     O21      OSL     -0.490000       15.9994           0
      7155 MEMB     49       DOPC     C21      CL       0.900000       12.0110           0
      7156 MEMB     49       DOPC     O22      OBL     -0.630000       15.9994           0
      7157 MEMB     49       DOPC     C22      CTL2    -0.220000       12.0110           0
      7158 MEMB     49       DOPC     H2R      HAL2     0.900000E-01   1.00800           0
      7159 MEMB     49       DOPC     H2S      HAL2     0.900000E-01   1.00800           0
      7160 MEMB     49       DOPC     C3       CTL2     0.800000E-01   12.0110           0
      7161 MEMB     49       DOPC     HX       HAL2     0.900000E-01   1.00800           0
      7162 MEMB     49       DOPC     HY       HAL2     0.900000E-01   1.00800           0
      7163 MEMB     49       DOPC     O31      OSL     -0.490000       15.9994           0
      7164 MEMB     49       DOPC     C31      CL       0.900000       12.0110           0
      7165 MEMB     49       DOPC     O32      OBL     -0.630000       15.9994           0
      7166 MEMB     49       DOPC     C32      CTL2    -0.220000       12.0110           0
      7167 MEMB     49       DOPC     H2X      HAL2     0.900000E-01   1.00800           0
      7168 MEMB     49       DOPC     H2Y      HAL2     0.900000E-01   1.00800           0
      7169 MEMB     49       DOPC     C23      CTL2    -0.180000       12.0110           0
      7170 MEMB     49       DOPC     H3R      HAL2     0.900000E-01   1.00800           0
      7171 MEMB     49       DOPC     H3S      HAL2     0.900000E-01   1.00800           0
      7172 MEMB     49       DOPC     C24      CTL2    -0.180000       12.0110           0
      7173 MEMB     49       DOPC     H4R      HAL2     0.900000E-01   1.00800           0
      7174 MEMB     49       DOPC     H4S      HAL2     0.900000E-01   1.00800           0
      7175 MEMB     49       DOPC     C25      CTL2    -0.180000       12.0110           0
      7176 MEMB     49       DOPC     H5R      HAL2     0.900000E-01   1.00800           0
      7177 MEMB     49       DOPC     H5S      HAL2     0.900000E-01   1.00800           0
      7178 MEMB     49       DOPC     C26      CTL2    -0.180000       12.0110           0
      7179 MEMB     49       DOPC     H6R      HAL2     0.900000E-01   1.00800           0
      7180 MEMB     49       DOPC     H6S      HAL2     0.900000E-01   1.00800           0
      7181 MEMB     49       DOPC     C27      CTL2    -0.180000       12.0110           0
      7182 MEMB     49       DOPC     H7R      HAL2     0.900000E-01   1.00800           0
      7183 MEMB     49       DOPC     H7S      HAL2     0.900000E-01   1.00800           0
      7184 MEMB     49       DOPC     C28      CTL2    -0.180000       12.0110           0
      7185 MEMB     49       DOPC     H8R      HAL2     0.900000E-01   1.00800           0
      7186 MEMB     49       DOPC     H8S      HAL2     0.900000E-01   1.00800           0
      7187 MEMB     49       DOPC     C29      CEL1    -0.150000       12.0110           0
      7188 MEMB     49       DOPC     H9R      HEL1     0.150000       1.00800           0
      7189 MEMB     49       DOPC     C210     CEL1    -0.150000       12.0110           0
      7190 MEMB     49       DOPC     H10R     HEL1     0.150000       1.00800           0
      7191 MEMB     49       DOPC     C211     CTL2    -0.180000       12.0110           0
      7192 MEMB     49       DOPC     H11R     HAL2     0.900000E-01   1.00800           0
      7193 MEMB     49       DOPC     H11S     HAL2     0.900000E-01   1.00800           0
      7194 MEMB     49       DOPC     C212     CTL2    -0.180000       12.0110           0
      7195 MEMB     49       DOPC     H12R     HAL2     0.900000E-01   1.00800           0
      7196 MEMB     49       DOPC     H12S     HAL2     0.900000E-01   1.00800           0
      7197 MEMB     49       DOPC     C213     CTL2    -0.180000       12.0110           0
      7198 MEMB     49       DOPC     H13R     HAL2     0.900000E-01   1.00800           0
      7199 MEMB     49       DOPC     H13S     HAL2     0.900000E-01   1.00800           0
      7200 MEMB     49       DOPC     C214     CTL2    -0.180000       12.0110           0
      7201 MEMB     49       DOPC     H14R     HAL2     0.900000E-01   1.00800           0
      7202 MEMB     49       DOPC     H14S     HAL2     0.900000E-01   1.00800           0
      7203 MEMB     49       DOPC     C215     CTL2    -0.180000       12.0110           0
      7204 MEMB     49       DOPC     H15R     HAL2     0.900000E-01   1.00800           0
      7205 MEMB     49       DOPC     H15S     HAL2     0.900000E-01   1.00800           0
      7206 MEMB     49       DOPC     C216     CTL2    -0.180000       12.0110           0
      7207 MEMB     49       DOPC     H16R     HAL2     0.900000E-01   1.00800           0
      7208 MEMB     49       DOPC     H16S     HAL2     0.900000E-01   1.00800           0
      7209 MEMB     49       DOPC     C217     CTL2    -0.180000       12.0110           0
      7210 MEMB     49       DOPC     H17R     HAL2     0.900000E-01   1.00800           0
      7211 MEMB     49       DOPC     H17S     HAL2     0.900000E-01   1.00800           0
      7212 MEMB     49       DOPC     C218     CTL3    -0.270000       12.0110           0
      7213 MEMB     49       DOPC     H18R     HAL3     0.900000E-01   1.00800           0
      7214 MEMB     49       DOPC     H18S     HAL3     0.900000E-01   1.00800           0
      7215 MEMB     49       DOPC     H18T     HAL3     0.900000E-01   1.00800           0
      7216 MEMB     49       DOPC     C33      CTL2    -0.180000       12.0110           0
      7217 MEMB     49       DOPC     H3X      HAL2     0.900000E-01   1.00800           0
      7218 MEMB     49       DOPC     H3Y      HAL2     0.900000E-01   1.00800           0
      7219 MEMB     49       DOPC     C34      CTL2    -0.180000       12.0110           0
      7220 MEMB     49       DOPC     H4X      HAL2     0.900000E-01   1.00800           0
      7221 MEMB     49       DOPC     H4Y      HAL2     0.900000E-01   1.00800           0
      7222 MEMB     49       DOPC     C35      CTL2    -0.180000       12.0110           0
      7223 MEMB     49       DOPC     H5X      HAL2     0.900000E-01   1.00800           0
      7224 MEMB     49       DOPC     H5Y      HAL2     0.900000E-01   1.00800           0
      7225 MEMB     49       DOPC     C36      CTL2    -0.180000       12.0110           0
      7226 MEMB     49       DOPC     H6X      HAL2     0.900000E-01   1.00800           0
      7227 MEMB     49       DOPC     H6Y      HAL2     0.900000E-01   1.00800           0
      7228 MEMB     49       DOPC     C37      CTL2    -0.180000       12.0110           0
      7229 MEMB     49       DOPC     H7X      HAL2     0.900000E-01   1.00800           0
      7230 MEMB     49       DOPC     H7Y      HAL2     0.900000E-01   1.00800           0
      7231 MEMB     49       DOPC     C38      CTL2    -0.180000       12.0110           0
      7232 MEMB     49       DOPC     H8X      HAL2     0.900000E-01   1.00800           0
      7233 MEMB     49       DOPC     H8Y      HAL2     0.900000E-01   1.00800           0
      7234 MEMB     49       DOPC     C39      CEL1    -0.150000       12.0110           0
      7235 MEMB     49       DOPC     H9X      HEL1     0.150000       1.00800           0
      7236 MEMB     49       DOPC     C310     CEL1    -0.150000       12.0110           0
      7237 MEMB     49       DOPC     H10X     HEL1     0.150000       1.00800           0
      7238 MEMB     49       DOPC     C311     CTL2    -0.180000       12.0110           0
      7239 MEMB     49       DOPC     H11X     HAL2     0.900000E-01   1.00800           0
      7240 MEMB     49       DOPC     H11Y     HAL2     0.900000E-01   1.00800           0
      7241 MEMB     49       DOPC     C312     CTL2    -0.180000       12.0110           0
      7242 MEMB     49       DOPC     H12X     HAL2     0.900000E-01   1.00800           0
      7243 MEMB     49       DOPC     H12Y     HAL2     0.900000E-01   1.00800           0
      7244 MEMB     49       DOPC     C313     CTL2    -0.180000       12.0110           0
      7245 MEMB     49       DOPC     H13X     HAL2     0.900000E-01   1.00800           0
      7246 MEMB     49       DOPC     H13Y     HAL2     0.900000E-01   1.00800           0
      7247 MEMB     49       DOPC     C314     CTL2    -0.180000       12.0110           0
      7248 MEMB     49       DOPC     H14X     HAL2     0.900000E-01   1.00800           0
      7249 MEMB     49       DOPC     H14Y     HAL2     0.900000E-01   1.00800           0
      7250 MEMB     49       DOPC     C315     CTL2    -0.180000       12.0110           0
      7251 MEMB     49       DOPC     H15X     HAL2     0.900000E-01   1.00800           0
      7252 MEMB     49       DOPC     H15Y     HAL2     0.900000E-01   1.00800           0
      7253 MEMB     49       DOPC     C316     CTL2    -0.180000       12.0110           0
      7254 MEMB     49       DOPC     H16X     HAL2     0.900000E-01   1.00800           0
      7255 MEMB     49       DOPC     H16Y     HAL2     0.900000E-01   1.00800           0
      7256 MEMB     49       DOPC     C317     CTL2    -0.180000       12.0110           0
      7257 MEMB     49       DOPC     H17X     HAL2     0.900000E-01   1.00800           0
      7258 MEMB     49       DOPC     H17Y     HAL2     0.900000E-01   1.00800           0
      7259 MEMB     49       DOPC     C318     CTL3    -0.270000       12.0110           0
      7260 MEMB     49       DOPC     H18X     HAL3     0.900000E-01   1.00800           0
      7261 MEMB     49       DOPC     H18Y     HAL3     0.900000E-01   1.00800           0
      7262 MEMB     49       DOPC     H18Z     HAL3     0.900000E-01   1.00800           0
      7263 MEMB     50       DOPC     N        NTL     -0.600000       14.0070           0
      7264 MEMB     50       DOPC     C12      CTL2    -0.100000       12.0110           0
      7265 MEMB     50       DOPC     H12A     HL       0.250000       1.00800           0
      7266 MEMB     50       DOPC     H12B     HL       0.250000       1.00800           0
      7267 MEMB     50       DOPC     C13      CTL5    -0.350000       12.0110           0
      7268 MEMB     50       DOPC     H13A     HL       0.250000       1.00800           0
      7269 MEMB     50       DOPC     H13B     HL       0.250000       1.00800           0
      7270 MEMB     50       DOPC     H13C     HL       0.250000       1.00800           0
      7271 MEMB     50       DOPC     C14      CTL5    -0.350000       12.0110           0
      7272 MEMB     50       DOPC     H14A     HL       0.250000       1.00800           0
      7273 MEMB     50       DOPC     H14B     HL       0.250000       1.00800           0
      7274 MEMB     50       DOPC     H14C     HL       0.250000       1.00800           0
      7275 MEMB     50       DOPC     C15      CTL5    -0.350000       12.0110           0
      7276 MEMB     50       DOPC     H15A     HL       0.250000       1.00800           0
      7277 MEMB     50       DOPC     H15B     HL       0.250000       1.00800           0
      7278 MEMB     50       DOPC     H15C     HL       0.250000       1.00800           0
      7279 MEMB     50       DOPC     C11      CTL2    -0.800000E-01   12.0110           0
      7280 MEMB     50       DOPC     H11A     HAL2     0.900000E-01   1.00800           0
      7281 MEMB     50       DOPC     H11B     HAL2     0.900000E-01   1.00800           0
      7282 MEMB     50       DOPC     P        PL        1.50000       30.9740           0
      7283 MEMB     50       DOPC     O13      O2L     -0.780000       15.9994           0
      7284 MEMB     50       DOPC     O14      O2L     -0.780000       15.9994           0
      7285 MEMB     50       DOPC     O12      OSLP    -0.570000       15.9994           0
      7286 MEMB     50       DOPC     O11      OSLP    -0.570000       15.9994           0
      7287 MEMB     50       DOPC     C1       CTL2    -0.800000E-01   12.0110           0
      7288 MEMB     50       DOPC     HA       HAL2     0.900000E-01   1.00800           0
      7289 MEMB     50       DOPC     HB       HAL2     0.900000E-01   1.00800           0
      7290 MEMB     50       DOPC     C2       CTL1     0.170000       12.0110           0
      7291 MEMB     50       DOPC     HS       HAL1     0.900000E-01   1.00800           0
      7292 MEMB     50       DOPC     O21      OSL     -0.490000       15.9994           0
      7293 MEMB     50       DOPC     C21      CL       0.900000       12.0110           0
      7294 MEMB     50       DOPC     O22      OBL     -0.630000       15.9994           0
      7295 MEMB     50       DOPC     C22      CTL2    -0.220000       12.0110           0
      7296 MEMB     50       DOPC     H2R      HAL2     0.900000E-01   1.00800           0
      7297 MEMB     50       DOPC     H2S      HAL2     0.900000E-01   1.00800           0
      7298 MEMB     50       DOPC     C3       CTL2     0.800000E-01   12.0110           0
      7299 MEMB     50       DOPC     HX       HAL2     0.900000E-01   1.00800           0
      7300 MEMB     50       DOPC     HY       HAL2     0.900000E-01   1.00800           0
      7301 MEMB     50       DOPC     O31      OSL     -0.490000       15.9994           0
      7302 MEMB     50       DOPC     C31      CL       0.900000       12.0110           0
      7303 MEMB     50       DOPC     O32      OBL     -0.630000       15.9994           0
      7304 MEMB     50       DOPC     C32      CTL2    -0.220000       12.0110           0
      7305 MEMB     50       DOPC     H2X      HAL2     0.900000E-01   1.00800           0
      7306 MEMB     50       DOPC     H2Y      HAL2     0.900000E-01   1.00800           0
      7307 MEMB     50       DOPC     C23      CTL2    -0.180000       12.0110           0
      7308 MEMB     50       DOPC     H3R      HAL2     0.900000E-01   1.00800           0
      7309 MEMB     50       DOPC     H3S      HAL2     0.900000E-01   1.00800           0
      7310 MEMB     50       DOPC     C24      CTL2    -0.180000       12.0110           0
      7311 MEMB     50       DOPC     H4R      HAL2     0.900000E-01   1.00800           0
      7312 MEMB     50       DOPC     H4S      HAL2     0.900000E-01   1.00800           0
      7313 MEMB     50       DOPC     C25      CTL2    -0.180000       12.0110           0
      7314 MEMB     50       DOPC     H5R      HAL2     0.900000E-01   1.00800           0
      7315 MEMB     50       DOPC     H5S      HAL2     0.900000E-01   1.00800           0
      7316 MEMB     50       DOPC     C26      CTL2    -0.180000       12.0110           0
      7317 MEMB     50       DOPC     H6R      HAL2     0.900000E-01   1.00800           0
      7318 MEMB     50       DOPC     H6S      HAL2     0.900000E-01   1.00800           0
      7319 MEMB     50       DOPC     C27      CTL2    -0.180000       12.0110           0
      7320 MEMB     50       DOPC     H7R      HAL2     0.900000E-01   1.00800           0
      7321 MEMB     50       DOPC     H7S      HAL2     0.900000E-01   1.00800           0
      7322 MEMB     50       DOPC     C28      CTL2    -0.180000       12.0110           0
      7323 MEMB     50       DOPC     H8R      HAL2     0.900000E-01   1.00800           0
      7324 MEMB     50       DOPC     H8S      HAL2     0.900000E-01   1.00800           0
      7325 MEMB     50       DOPC     C29      CEL1    -0.150000       12.0110           0
      7326 MEMB     50       DOPC     H9R      HEL1     0.150000       1.00800           0
      7327 MEMB     50       DOPC     C210     CEL1    -0.150000       12.0110           0
      7328 MEMB     50       DOPC     H10R     HEL1     0.150000       1.00800           0
      7329 MEMB     50       DOPC     C211     CTL2    -0.180000       12.0110           0
      7330 MEMB     50       DOPC     H11R     HAL2     0.900000E-01   1.00800           0
      7331 MEMB     50       DOPC     H11S     HAL2     0.900000E-01   1.00800           0
      7332 MEMB     50       DOPC     C212     CTL2    -0.180000       12.0110           0
      7333 MEMB     50       DOPC     H12R     HAL2     0.900000E-01   1.00800           0
      7334 MEMB     50       DOPC     H12S     HAL2     0.900000E-01   1.00800           0
      7335 MEMB     50       DOPC     C213     CTL2    -0.180000       12.0110           0
      7336 MEMB     50       DOPC     H13R     HAL2     0.900000E-01   1.00800           0
      7337 MEMB     50       DOPC     H13S     HAL2     0.900000E-01   1.00800           0
      7338 MEMB     50       DOPC     C214     CTL2    -0.180000       12.0110           0
      7339 MEMB     50       DOPC     H14R     HAL2     0.900000E-01   1.00800           0
      7340 MEMB     50       DOPC     H14S     HAL2     0.900000E-01   1.00800           0
      7341 MEMB     50       DOPC     C215     CTL2    -0.180000       12.0110           0
      7342 MEMB     50       DOPC     H15R     HAL2     0.900000E-01   1.00800           0
      7343 MEMB     50       DOPC     H15S     HAL2     0.900000E-01   1.00800           0
      7344 MEMB     50       DOPC     C216     CTL2    -0.180000       12.0110           0
      7345 MEMB     50       DOPC     H16R     HAL2     0.900000E-01   1.00800           0
      7346 MEMB     50       DOPC     H16S     HAL2     0.900000E-01   1.00800           0
      7347 MEMB     50       DOPC     C217     CTL2    -0.180000       12.0110           0
      7348 MEMB     50       DOPC     H17R     HAL2     0.900000E-01   1.00800           0
      7349 MEMB     50       DOPC     H17S     HAL2     0.900000E-01   1.00800           0
      7350 MEMB     50       DOPC     C218     CTL3    -0.270000       12.0110           0
      7351 MEMB     50       DOPC     H18R     HAL3     0.900000E-01   1.00800           0
      7352 MEMB     50       DOPC     H18S     HAL3     0.900000E-01   1.00800           0
      7353 MEMB     50       DOPC     H18T     HAL3     0.900000E-01   1.00800           0
      7354 MEMB     50       DOPC     C33      CTL2    -0.180000       12.0110           0
      7355 MEMB     50       DOPC     H3X      HAL2     0.900000E-01   1.00800           0
      7356 MEMB     50       DOPC     H3Y      HAL2     0.900000E-01   1.00800           0
      7357 MEMB     50       DOPC     C34      CTL2    -0.180000       12.0110           0
      7358 MEMB     50       DOPC     H4X      HAL2     0.900000E-01   1.00800           0
      7359 MEMB     50       DOPC     H4Y      HAL2     0.900000E-01   1.00800           0
      7360 MEMB     50       DOPC     C35      CTL2    -0.180000       12.0110           0
      7361 MEMB     50       DOPC     H5X      HAL2     0.900000E-01   1.00800           0
      7362 MEMB     50       DOPC     H5Y      HAL2     0.900000E-01   1.00800           0
      7363 MEMB     50       DOPC     C36      CTL2    -0.180000       12.0110           0
      7364 MEMB     50       DOPC     H6X      HAL2     0.900000E-01   1.00800           0
      7365 MEMB     50       DOPC     H6Y      HAL2     0.900000E-01   1.00800           0
      7366 MEMB     50       DOPC     C37      CTL2    -0.180000       12.0110           0
      7367 MEMB     50       DOPC     H7X      HAL2     0.900000E-01   1.00800           0
      7368 MEMB     50       DOPC     H7Y      HAL2     0.900000E-01   1.00800           0
      7369 MEMB     50       DOPC     C38      CTL2    -0.180000       12.0110           0
      7370 MEMB     50       DOPC     H8X      HAL2     0.900000E-01   1.00800           0
      7371 MEMB     50       DOPC     H8Y      HAL2     0.900000E-01   1.00800           0
      7372 MEMB     50       DOPC     C39      CEL1    -0.150000       12.0110           0
      7373 MEMB     50       DOPC     H9X      HEL1     0.150000       1.00800           0
      7374 MEMB     50       DOPC     C310     CEL1    -0.150000       12.0110           0
      7375 MEMB     50       DOPC     H10X     HEL1     0.150000       1.00800           0
      7376 MEMB     50       DOPC     C311     CTL2    -0.180000       12.0110           0
      7377 MEMB     50       DOPC     H11X     HAL2     0.900000E-01   1.00800           0
      7378 MEMB     50       DOPC     H11Y     HAL2     0.900000E-01   1.00800           0
      7379 MEMB     50       DOPC     C312     CTL2    -0.180000       12.0110           0
      7380 MEMB     50       DOPC     H12X     HAL2     0.900000E-01   1.00800           0
      7381 MEMB     50       DOPC     H12Y     HAL2     0.900000E-01   1.00800           0
      7382 MEMB     50       DOPC     C313     CTL2    -0.180000       12.0110           0
      7383 MEMB     50       DOPC     H13X     HAL2     0.900000E-01   1.00800           0
      7384 MEMB     50       DOPC     H13Y     HAL2     0.900000E-01   1.00800           0
      7385 MEMB     50       DOPC     C314     CTL2    -0.180000       12.0110           0
      7386 MEMB     50       DOPC     H14X     HAL2     0.900000E-01   1.00800           0
      7387 MEMB     50       DOPC     H14Y     HAL2     0.900000E-01   1.00800           0
      7388 MEMB     50       DOPC     C315     CTL2    -0.180000       12.0110           0
      7389 MEMB     50       DOPC     H15X     HAL2     0.900000E-01   1.00800           0
      7390 MEMB     50       DOPC     H15Y     HAL2     0.900000E-01   1.00800           0
      7391 MEMB     50       DOPC     C316     CTL2    -0.180000       12.0110           0
      7392 MEMB     50       DOPC     H16X     HAL2     0.900000E-01   1.00800           0
      7393 MEMB     50       DOPC     H16Y     HAL2     0.900000E-01   1.00800           0
      7394 MEMB     50       DOPC     C317     CTL2    -0.180000       12.0110           0
      7395 MEMB     50       DOPC     H17X     HAL2     0.900000E-01   1.00800           0
      7396 MEMB     50       DOPC     H17Y     HAL2     0.900000E-01   1.00800           0
      7397 MEMB     50       DOPC     C318     CTL3    -0.270000       12.0110           0
      7398 MEMB     50       DOPC     H18X     HAL3     0.900000E-01   1.00800           0
      7399 MEMB     50       DOPC     H18Y     HAL3     0.900000E-01   1.00800           0
      7400 MEMB     50       DOPC     H18Z     HAL3     0.900000E-01   1.00800           0
      7401 MEMB     51       DOPC     N        NTL     -0.600000       14.0070           0
      7402 MEMB     51       DOPC     C12      CTL2    -0.100000       12.0110           0
      7403 MEMB     51       DOPC     H12A     HL       0.250000       1.00800           0
      7404 MEMB     51       DOPC     H12B     HL       0.250000       1.00800           0
      7405 MEMB     51       DOPC     C13      CTL5    -0.350000       12.0110           0
      7406 MEMB     51       DOPC     H13A     HL       0.250000       1.00800           0
      7407 MEMB     51       DOPC     H13B     HL       0.250000       1.00800           0
      7408 MEMB     51       DOPC     H13C     HL       0.250000       1.00800           0
      7409 MEMB     51       DOPC     C14      CTL5    -0.350000       12.0110           0
      7410 MEMB     51       DOPC     H14A     HL       0.250000       1.00800           0
      7411 MEMB     51       DOPC     H14B     HL       0.250000       1.00800           0
      7412 MEMB     51       DOPC     H14C     HL       0.250000       1.00800           0
      7413 MEMB     51       DOPC     C15      CTL5    -0.350000       12.0110           0
      7414 MEMB     51       DOPC     H15A     HL       0.250000       1.00800           0
      7415 MEMB     51       DOPC     H15B     HL       0.250000       1.00800           0
      7416 MEMB     51       DOPC     H15C     HL       0.250000       1.00800           0
      7417 MEMB     51       DOPC     C11      CTL2    -0.800000E-01   12.0110           0
      7418 MEMB     51       DOPC     H11A     HAL2     0.900000E-01   1.00800           0
      7419 MEMB     51       DOPC     H11B     HAL2     0.900000E-01   1.00800           0
      7420 MEMB     51       DOPC     P        PL        1.50000       30.9740           0
      7421 MEMB     51       DOPC     O13      O2L     -0.780000       15.9994           0
      7422 MEMB     51       DOPC     O14      O2L     -0.780000       15.9994           0
      7423 MEMB     51       DOPC     O12      OSLP    -0.570000       15.9994           0
      7424 MEMB     51       DOPC     O11      OSLP    -0.570000       15.9994           0
      7425 MEMB     51       DOPC     C1       CTL2    -0.800000E-01   12.0110           0
      7426 MEMB     51       DOPC     HA       HAL2     0.900000E-01   1.00800           0
      7427 MEMB     51       DOPC     HB       HAL2     0.900000E-01   1.00800           0
      7428 MEMB     51       DOPC     C2       CTL1     0.170000       12.0110           0
      7429 MEMB     51       DOPC     HS       HAL1     0.900000E-01   1.00800           0
      7430 MEMB     51       DOPC     O21      OSL     -0.490000       15.9994           0
      7431 MEMB     51       DOPC     C21      CL       0.900000       12.0110           0
      7432 MEMB     51       DOPC     O22      OBL     -0.630000       15.9994           0
      7433 MEMB     51       DOPC     C22      CTL2    -0.220000       12.0110           0
      7434 MEMB     51       DOPC     H2R      HAL2     0.900000E-01   1.00800           0
      7435 MEMB     51       DOPC     H2S      HAL2     0.900000E-01   1.00800           0
      7436 MEMB     51       DOPC     C3       CTL2     0.800000E-01   12.0110           0
      7437 MEMB     51       DOPC     HX       HAL2     0.900000E-01   1.00800           0
      7438 MEMB     51       DOPC     HY       HAL2     0.900000E-01   1.00800           0
      7439 MEMB     51       DOPC     O31      OSL     -0.490000       15.9994           0
      7440 MEMB     51       DOPC     C31      CL       0.900000       12.0110           0
      7441 MEMB     51       DOPC     O32      OBL     -0.630000       15.9994           0
      7442 MEMB     51       DOPC     C32      CTL2    -0.220000       12.0110           0
      7443 MEMB     51       DOPC     H2X      HAL2     0.900000E-01   1.00800           0
      7444 MEMB     51       DOPC     H2Y      HAL2     0.900000E-01   1.00800           0
      7445 MEMB     51       DOPC     C23      CTL2    -0.180000       12.0110           0
      7446 MEMB     51       DOPC     H3R      HAL2     0.900000E-01   1.00800           0
      7447 MEMB     51       DOPC     H3S      HAL2     0.900000E-01   1.00800           0
      7448 MEMB     51       DOPC     C24      CTL2    -0.180000       12.0110           0
      7449 MEMB     51       DOPC     H4R      HAL2     0.900000E-01   1.00800           0
      7450 MEMB     51       DOPC     H4S      HAL2     0.900000E-01   1.00800           0
      7451 MEMB     51       DOPC     C25      CTL2    -0.180000       12.0110           0
      7452 MEMB     51       DOPC     H5R      HAL2     0.900000E-01   1.00800           0
      7453 MEMB     51       DOPC     H5S      HAL2     0.900000E-01   1.00800           0
      7454 MEMB     51       DOPC     C26      CTL2    -0.180000       12.0110           0
      7455 MEMB     51       DOPC     H6R      HAL2     0.900000E-01   1.00800           0
      7456 MEMB     51       DOPC     H6S      HAL2     0.900000E-01   1.00800           0
      7457 MEMB     51       DOPC     C27      CTL2    -0.180000       12.0110           0
      7458 MEMB     51       DOPC     H7R      HAL2     0.900000E-01   1.00800           0
      7459 MEMB     51       DOPC     H7S      HAL2     0.900000E-01   1.00800           0
      7460 MEMB     51       DOPC     C28      CTL2    -0.180000       12.0110           0
      7461 MEMB     51       DOPC     H8R      HAL2     0.900000E-01   1.00800           0
      7462 MEMB     51       DOPC     H8S      HAL2     0.900000E-01   1.00800           0
      7463 MEMB     51       DOPC     C29      CEL1    -0.150000       12.0110           0
      7464 MEMB     51       DOPC     H9R      HEL1     0.150000       1.00800           0
      7465 MEMB     51       DOPC     C210     CEL1    -0.150000       12.0110           0
      7466 MEMB     51       DOPC     H10R     HEL1     0.150000       1.00800           0
      7467 MEMB     51       DOPC     C211     CTL2    -0.180000       12.0110           0
      7468 MEMB     51       DOPC     H11R     HAL2     0.900000E-01   1.00800           0
      7469 MEMB     51       DOPC     H11S     HAL2     0.900000E-01   1.00800           0
      7470 MEMB     51       DOPC     C212     CTL2    -0.180000       12.0110           0
      7471 MEMB     51       DOPC     H12R     HAL2     0.900000E-01   1.00800           0
      7472 MEMB     51       DOPC     H12S     HAL2     0.900000E-01   1.00800           0
      7473 MEMB     51       DOPC     C213     CTL2    -0.180000       12.0110           0
      7474 MEMB     51       DOPC     H13R     HAL2     0.900000E-01   1.00800           0
      7475 MEMB     51       DOPC     H13S     HAL2     0.900000E-01   1.00800           0
      7476 MEMB     51       DOPC     C214     CTL2    -0.180000       12.0110           0
      7477 MEMB     51       DOPC     H14R     HAL2     0.900000E-01   1.00800           0
      7478 MEMB     51       DOPC     H14S     HAL2     0.900000E-01   1.00800           0
      7479 MEMB     51       DOPC     C215     CTL2    -0.180000       12.0110           0
      7480 MEMB     51       DOPC     H15R     HAL2     0.900000E-01   1.00800           0
      7481 MEMB     51       DOPC     H15S     HAL2     0.900000E-01   1.00800           0
      7482 MEMB     51       DOPC     C216     CTL2    -0.180000       12.0110           0
      7483 MEMB     51       DOPC     H16R     HAL2     0.900000E-01   1.00800           0
      7484 MEMB     51       DOPC     H16S     HAL2     0.900000E-01   1.00800           0
      7485 MEMB     51       DOPC     C217     CTL2    -0.180000       12.0110           0
      7486 MEMB     51       DOPC     H17R     HAL2     0.900000E-01   1.00800           0
      7487 MEMB     51       DOPC     H17S     HAL2     0.900000E-01   1.00800           0
      7488 MEMB     51       DOPC     C218     CTL3    -0.270000       12.0110           0
      7489 MEMB     51       DOPC     H18R     HAL3     0.900000E-01   1.00800           0
      7490 MEMB     51       DOPC     H18S     HAL3     0.900000E-01   1.00800           0
      7491 MEMB     51       DOPC     H18T     HAL3     0.900000E-01   1.00800           0
      7492 MEMB     51       DOPC     C33      CTL2    -0.180000       12.0110           0
      7493 MEMB     51       DOPC     H3X      HAL2     0.900000E-01   1.00800           0
      7494 MEMB     51       DOPC     H3Y      HAL2     0.900000E-01   1.00800           0
      7495 MEMB     51       DOPC     C34      CTL2    -0.180000       12.0110           0
      7496 MEMB     51       DOPC     H4X      HAL2     0.900000E-01   1.00800           0
      7497 MEMB     51       DOPC     H4Y      HAL2     0.900000E-01   1.00800           0
      7498 MEMB     51       DOPC     C35      CTL2    -0.180000       12.0110           0
      7499 MEMB     51       DOPC     H5X      HAL2     0.900000E-01   1.00800           0
      7500 MEMB     51       DOPC     H5Y      HAL2     0.900000E-01   1.00800           0
      7501 MEMB     51       DOPC     C36      CTL2    -0.180000       12.0110           0
      7502 MEMB     51       DOPC     H6X      HAL2     0.900000E-01   1.00800           0
      7503 MEMB     51       DOPC     H6Y      HAL2     0.900000E-01   1.00800           0
      7504 MEMB     51       DOPC     C37      CTL2    -0.180000       12.0110           0
      7505 MEMB     51       DOPC     H7X      HAL2     0.900000E-01   1.00800           0
      7506 MEMB     51       DOPC     H7Y      HAL2     0.900000E-01   1.00800           0
      7507 MEMB     51       DOPC     C38      CTL2    -0.180000       12.0110           0
      7508 MEMB     51       DOPC     H8X      HAL2     0.900000E-01   1.00800           0
      7509 MEMB     51       DOPC     H8Y      HAL2     0.900000E-01   1.00800           0
      7510 MEMB     51       DOPC     C39      CEL1    -0.150000       12.0110           0
      7511 MEMB     51       DOPC     H9X      HEL1     0.150000       1.00800           0
      7512 MEMB     51       DOPC     C310     CEL1    -0.150000       12.0110           0
      7513 MEMB     51       DOPC     H10X     HEL1     0.150000       1.00800           0
      7514 MEMB     51       DOPC     C311     CTL2    -0.180000       12.0110           0
      7515 MEMB     51       DOPC     H11X     HAL2     0.900000E-01   1.00800           0
      7516 MEMB     51       DOPC     H11Y     HAL2     0.900000E-01   1.00800           0
      7517 MEMB     51       DOPC     C312     CTL2    -0.180000       12.0110           0
      7518 MEMB     51       DOPC     H12X     HAL2     0.900000E-01   1.00800           0
      7519 MEMB     51       DOPC     H12Y     HAL2     0.900000E-01   1.00800           0
      7520 MEMB     51       DOPC     C313     CTL2    -0.180000       12.0110           0
      7521 MEMB     51       DOPC     H13X     HAL2     0.900000E-01   1.00800           0
      7522 MEMB     51       DOPC     H13Y     HAL2     0.900000E-01   1.00800           0
      7523 MEMB     51       DOPC     C314     CTL2    -0.180000       12.0110           0
      7524 MEMB     51       DOPC     H14X     HAL2     0.900000E-01   1.00800           0
      7525 MEMB     51       DOPC     H14Y     HAL2     0.900000E-01   1.00800           0
      7526 MEMB     51       DOPC     C315     CTL2    -0.180000       12.0110           0
      7527 MEMB     51       DOPC     H15X     HAL2     0.900000E-01   1.00800           0
      7528 MEMB     51       DOPC     H15Y     HAL2     0.900000E-01   1.00800           0
      7529 MEMB     51       DOPC     C316     CTL2    -0.180000       12.0110           0
      7530 MEMB     51       DOPC     H16X     HAL2     0.900000E-01   1.00800           0
      7531 MEMB     51       DOPC     H16Y     HAL2     0.900000E-01   1.00800           0
      7532 MEMB     51       DOPC     C317     CTL2    -0.180000       12.0110           0
      7533 MEMB     51       DOPC     H17X     HAL2     0.900000E-01   1.00800           0
      7534 MEMB     51       DOPC     H17Y     HAL2     0.900000E-01   1.00800           0
      7535 MEMB     51       DOPC     C318     CTL3    -0.270000       12.0110           0
      7536 MEMB     51       DOPC     H18X     HAL3     0.900000E-01   1.00800           0
      7537 MEMB     51       DOPC     H18Y     HAL3     0.900000E-01   1.00800           0
      7538 MEMB     51       DOPC     H18Z     HAL3     0.900000E-01   1.00800           0
      7539 MEMB     52       DOPC     N        NTL     -0.600000       14.0070           0
      7540 MEMB     52       DOPC     C12      CTL2    -0.100000       12.0110           0
      7541 MEMB     52       DOPC     H12A     HL       0.250000       1.00800           0
      7542 MEMB     52       DOPC     H12B     HL       0.250000       1.00800           0
      7543 MEMB     52       DOPC     C13      CTL5    -0.350000       12.0110           0
      7544 MEMB     52       DOPC     H13A     HL       0.250000       1.00800           0
      7545 MEMB     52       DOPC     H13B     HL       0.250000       1.00800           0
      7546 MEMB     52       DOPC     H13C     HL       0.250000       1.00800           0
      7547 MEMB     52       DOPC     C14      CTL5    -0.350000       12.0110           0
      7548 MEMB     52       DOPC     H14A     HL       0.250000       1.00800           0
      7549 MEMB     52       DOPC     H14B     HL       0.250000       1.00800           0
      7550 MEMB     52       DOPC     H14C     HL       0.250000       1.00800           0
      7551 MEMB     52       DOPC     C15      CTL5    -0.350000       12.0110           0
      7552 MEMB     52       DOPC     H15A     HL       0.250000       1.00800           0
      7553 MEMB     52       DOPC     H15B     HL       0.250000       1.00800           0
      7554 MEMB     52       DOPC     H15C     HL       0.250000       1.00800           0
      7555 MEMB     52       DOPC     C11      CTL2    -0.800000E-01   12.0110           0
      7556 MEMB     52       DOPC     H11A     HAL2     0.900000E-01   1.00800           0
      7557 MEMB     52       DOPC     H11B     HAL2     0.900000E-01   1.00800           0
      7558 MEMB     52       DOPC     P        PL        1.50000       30.9740           0
      7559 MEMB     52       DOPC     O13      O2L     -0.780000       15.9994           0
      7560 MEMB     52       DOPC     O14      O2L     -0.780000       15.9994           0
      7561 MEMB     52       DOPC     O12      OSLP    -0.570000       15.9994           0
      7562 MEMB     52       DOPC     O11      OSLP    -0.570000       15.9994           0
      7563 MEMB     52       DOPC     C1       CTL2    -0.800000E-01   12.0110           0
      7564 MEMB     52       DOPC     HA       HAL2     0.900000E-01   1.00800           0
      7565 MEMB     52       DOPC     HB       HAL2     0.900000E-01   1.00800           0
      7566 MEMB     52       DOPC     C2       CTL1     0.170000       12.0110           0
      7567 MEMB     52       DOPC     HS       HAL1     0.900000E-01   1.00800           0
      7568 MEMB     52       DOPC     O21      OSL     -0.490000       15.9994           0
      7569 MEMB     52       DOPC     C21      CL       0.900000       12.0110           0
      7570 MEMB     52       DOPC     O22      OBL     -0.630000       15.9994           0
      7571 MEMB     52       DOPC     C22      CTL2    -0.220000       12.0110           0
      7572 MEMB     52       DOPC     H2R      HAL2     0.900000E-01   1.00800           0
      7573 MEMB     52       DOPC     H2S      HAL2     0.900000E-01   1.00800           0
      7574 MEMB     52       DOPC     C3       CTL2     0.800000E-01   12.0110           0
      7575 MEMB     52       DOPC     HX       HAL2     0.900000E-01   1.00800           0
      7576 MEMB     52       DOPC     HY       HAL2     0.900000E-01   1.00800           0
      7577 MEMB     52       DOPC     O31      OSL     -0.490000       15.9994           0
      7578 MEMB     52       DOPC     C31      CL       0.900000       12.0110           0
      7579 MEMB     52       DOPC     O32      OBL     -0.630000       15.9994           0
      7580 MEMB     52       DOPC     C32      CTL2    -0.220000       12.0110           0
      7581 MEMB     52       DOPC     H2X      HAL2     0.900000E-01   1.00800           0
      7582 MEMB     52       DOPC     H2Y      HAL2     0.900000E-01   1.00800           0
      7583 MEMB     52       DOPC     C23      CTL2    -0.180000       12.0110           0
      7584 MEMB     52       DOPC     H3R      HAL2     0.900000E-01   1.00800           0
      7585 MEMB     52       DOPC     H3S      HAL2     0.900000E-01   1.00800           0
      7586 MEMB     52       DOPC     C24      CTL2    -0.180000       12.0110           0
      7587 MEMB     52       DOPC     H4R      HAL2     0.900000E-01   1.00800           0
      7588 MEMB     52       DOPC     H4S      HAL2     0.900000E-01   1.00800           0
      7589 MEMB     52       DOPC     C25      CTL2    -0.180000       12.0110           0
      7590 MEMB     52       DOPC     H5R      HAL2     0.900000E-01   1.00800           0
      7591 MEMB     52       DOPC     H5S      HAL2     0.900000E-01   1.00800           0
      7592 MEMB     52       DOPC     C26      CTL2    -0.180000       12.0110           0
      7593 MEMB     52       DOPC     H6R      HAL2     0.900000E-01   1.00800           0
      7594 MEMB     52       DOPC     H6S      HAL2     0.900000E-01   1.00800           0
      7595 MEMB     52       DOPC     C27      CTL2    -0.180000       12.0110           0
      7596 MEMB     52       DOPC     H7R      HAL2     0.900000E-01   1.00800           0
      7597 MEMB     52       DOPC     H7S      HAL2     0.900000E-01   1.00800           0
      7598 MEMB     52       DOPC     C28      CTL2    -0.180000       12.0110           0
      7599 MEMB     52       DOPC     H8R      HAL2     0.900000E-01   1.00800           0
      7600 MEMB     52       DOPC     H8S      HAL2     0.900000E-01   1.00800           0
      7601 MEMB     52       DOPC     C29      CEL1    -0.150000       12.0110           0
      7602 MEMB     52       DOPC     H9R      HEL1     0.150000       1.00800           0
      7603 MEMB     52       DOPC     C210     CEL1    -0.150000       12.0110           0
      7604 MEMB     52       DOPC     H10R     HEL1     0.150000       1.00800           0
      7605 MEMB     52       DOPC     C211     CTL2    -0.180000       12.0110           0
      7606 MEMB     52       DOPC     H11R     HAL2     0.900000E-01   1.00800           0
      7607 MEMB     52       DOPC     H11S     HAL2     0.900000E-01   1.00800           0
      7608 MEMB     52       DOPC     C212     CTL2    -0.180000       12.0110           0
      7609 MEMB     52       DOPC     H12R     HAL2     0.900000E-01   1.00800           0
      7610 MEMB     52       DOPC     H12S     HAL2     0.900000E-01   1.00800           0
      7611 MEMB     52       DOPC     C213     CTL2    -0.180000       12.0110           0
      7612 MEMB     52       DOPC     H13R     HAL2     0.900000E-01   1.00800           0
      7613 MEMB     52       DOPC     H13S     HAL2     0.900000E-01   1.00800           0
      7614 MEMB     52       DOPC     C214     CTL2    -0.180000       12.0110           0
      7615 MEMB     52       DOPC     H14R     HAL2     0.900000E-01   1.00800           0
      7616 MEMB     52       DOPC     H14S     HAL2     0.900000E-01   1.00800           0
      7617 MEMB     52       DOPC     C215     CTL2    -0.180000       12.0110           0
      7618 MEMB     52       DOPC     H15R     HAL2     0.900000E-01   1.00800           0
      7619 MEMB     52       DOPC     H15S     HAL2     0.900000E-01   1.00800           0
      7620 MEMB     52       DOPC     C216     CTL2    -0.180000       12.0110           0
      7621 MEMB     52       DOPC     H16R     HAL2     0.900000E-01   1.00800           0
      7622 MEMB     52       DOPC     H16S     HAL2     0.900000E-01   1.00800           0
      7623 MEMB     52       DOPC     C217     CTL2    -0.180000       12.0110           0
      7624 MEMB     52       DOPC     H17R     HAL2     0.900000E-01   1.00800           0
      7625 MEMB     52       DOPC     H17S     HAL2     0.900000E-01   1.00800           0
      7626 MEMB     52       DOPC     C218     CTL3    -0.270000       12.0110           0
      7627 MEMB     52       DOPC     H18R     HAL3     0.900000E-01   1.00800           0
      7628 MEMB     52       DOPC     H18S     HAL3     0.900000E-01   1.00800           0
      7629 MEMB     52       DOPC     H18T     HAL3     0.900000E-01   1.00800           0
      7630 MEMB     52       DOPC     C33      CTL2    -0.180000       12.0110           0
      7631 MEMB     52       DOPC     H3X      HAL2     0.900000E-01   1.00800           0
      7632 MEMB     52       DOPC     H3Y      HAL2     0.900000E-01   1.00800           0
      7633 MEMB     52       DOPC     C34      CTL2    -0.180000       12.0110           0
      7634 MEMB     52       DOPC     H4X      HAL2     0.900000E-01   1.00800           0
      7635 MEMB     52       DOPC     H4Y      HAL2     0.900000E-01   1.00800           0
      7636 MEMB     52       DOPC     C35      CTL2    -0.180000       12.0110           0
      7637 MEMB     52       DOPC     H5X      HAL2     0.900000E-01   1.00800           0
      7638 MEMB     52       DOPC     H5Y      HAL2     0.900000E-01   1.00800           0
      7639 MEMB     52       DOPC     C36      CTL2    -0.180000       12.0110           0
      7640 MEMB     52       DOPC     H6X      HAL2     0.900000E-01   1.00800           0
      7641 MEMB     52       DOPC     H6Y      HAL2     0.900000E-01   1.00800           0
      7642 MEMB     52       DOPC     C37      CTL2    -0.180000       12.0110           0
      7643 MEMB     52       DOPC     H7X      HAL2     0.900000E-01   1.00800           0
      7644 MEMB     52       DOPC     H7Y      HAL2     0.900000E-01   1.00800           0
      7645 MEMB     52       DOPC     C38      CTL2    -0.180000       12.0110           0
      7646 MEMB     52       DOPC     H8X      HAL2     0.900000E-01   1.00800           0
      7647 MEMB     52       DOPC     H8Y      HAL2     0.900000E-01   1.00800           0
      7648 MEMB     52       DOPC     C39      CEL1    -0.150000       12.0110           0
      7649 MEMB     52       DOPC     H9X      HEL1     0.150000       1.00800           0
      7650 MEMB     52       DOPC     C310     CEL1    -0.150000       12.0110           0
      7651 MEMB     52       DOPC     H10X     HEL1     0.150000       1.00800           0
      7652 MEMB     52       DOPC     C311     CTL2    -0.180000       12.0110           0
      7653 MEMB     52       DOPC     H11X     HAL2     0.900000E-01   1.00800           0
      7654 MEMB     52       DOPC     H11Y     HAL2     0.900000E-01   1.00800           0
      7655 MEMB     52       DOPC     C312     CTL2    -0.180000       12.0110           0
      7656 MEMB     52       DOPC     H12X     HAL2     0.900000E-01   1.00800           0
      7657 MEMB     52       DOPC     H12Y     HAL2     0.900000E-01   1.00800           0
      7658 MEMB     52       DOPC     C313     CTL2    -0.180000       12.0110           0
      7659 MEMB     52       DOPC     H13X     HAL2     0.900000E-01   1.00800           0
      7660 MEMB     52       DOPC     H13Y     HAL2     0.900000E-01   1.00800           0
      7661 MEMB     52       DOPC     C314     CTL2    -0.180000       12.0110           0
      7662 MEMB     52       DOPC     H14X     HAL2     0.900000E-01   1.00800           0
      7663 MEMB     52       DOPC     H14Y     HAL2     0.900000E-01   1.00800           0
      7664 MEMB     52       DOPC     C315     CTL2    -0.180000       12.0110           0
      7665 MEMB     52       DOPC     H15X     HAL2     0.900000E-01   1.00800           0
      7666 MEMB     52       DOPC     H15Y     HAL2     0.900000E-01   1.00800           0
      7667 MEMB     52       DOPC     C316     CTL2    -0.180000       12.0110           0
      7668 MEMB     52       DOPC     H16X     HAL2     0.900000E-01   1.00800           0
      7669 MEMB     52       DOPC     H16Y     HAL2     0.900000E-01   1.00800           0
      7670 MEMB     52       DOPC     C317     CTL2    -0.180000       12.0110           0
      7671 MEMB     52       DOPC     H17X     HAL2     0.900000E-01   1.00800           0
      7672 MEMB     52       DOPC     H17Y     HAL2     0.900000E-01   1.00800           0
      7673 MEMB     52       DOPC     C318     CTL3    -0.270000       12.0110           0
      7674 MEMB     52       DOPC     H18X     HAL3     0.900000E-01   1.00800           0
      7675 MEMB     52       DOPC     H18Y     HAL3     0.900000E-01   1.00800           0
      7676 MEMB     52       DOPC     H18Z     HAL3     0.900000E-01   1.00800           0
      7677 MEMB     53       DOPC     N        NTL     -0.600000       14.0070           0
      7678 MEMB     53       DOPC     C12      CTL2    -0.100000       12.0110           0
      7679 MEMB     53       DOPC     H12A     HL       0.250000       1.00800           0
      7680 MEMB     53       DOPC     H12B     HL       0.250000       1.00800           0
      7681 MEMB     53       DOPC     C13      CTL5    -0.350000       12.0110           0
      7682 MEMB     53       DOPC     H13A     HL       0.250000       1.00800           0
      7683 MEMB     53       DOPC     H13B     HL       0.250000       1.00800           0
      7684 MEMB     53       DOPC     H13C     HL       0.250000       1.00800           0
      7685 MEMB     53       DOPC     C14      CTL5    -0.350000       12.0110           0
      7686 MEMB     53       DOPC     H14A     HL       0.250000       1.00800           0
      7687 MEMB     53       DOPC     H14B     HL       0.250000       1.00800           0
      7688 MEMB     53       DOPC     H14C     HL       0.250000       1.00800           0
      7689 MEMB     53       DOPC     C15      CTL5    -0.350000       12.0110           0
      7690 MEMB     53       DOPC     H15A     HL       0.250000       1.00800           0
      7691 MEMB     53       DOPC     H15B     HL       0.250000       1.00800           0
      7692 MEMB     53       DOPC     H15C     HL       0.250000       1.00800           0
      7693 MEMB     53       DOPC     C11      CTL2    -0.800000E-01   12.0110           0
      7694 MEMB     53       DOPC     H11A     HAL2     0.900000E-01   1.00800           0
      7695 MEMB     53       DOPC     H11B     HAL2     0.900000E-01   1.00800           0
      7696 MEMB     53       DOPC     P        PL        1.50000       30.9740           0
      7697 MEMB     53       DOPC     O13      O2L     -0.780000       15.9994           0
      7698 MEMB     53       DOPC     O14      O2L     -0.780000       15.9994           0
      7699 MEMB     53       DOPC     O12      OSLP    -0.570000       15.9994           0
      7700 MEMB     53       DOPC     O11      OSLP    -0.570000       15.9994           0
      7701 MEMB     53       DOPC     C1       CTL2    -0.800000E-01   12.0110           0
      7702 MEMB     53       DOPC     HA       HAL2     0.900000E-01   1.00800           0
      7703 MEMB     53       DOPC     HB       HAL2     0.900000E-01   1.00800           0
      7704 MEMB     53       DOPC     C2       CTL1     0.170000       12.0110           0
      7705 MEMB     53       DOPC     HS       HAL1     0.900000E-01   1.00800           0
      7706 MEMB     53       DOPC     O21      OSL     -0.490000       15.9994           0
      7707 MEMB     53       DOPC     C21      CL       0.900000       12.0110           0
      7708 MEMB     53       DOPC     O22      OBL     -0.630000       15.9994           0
      7709 MEMB     53       DOPC     C22      CTL2    -0.220000       12.0110           0
      7710 MEMB     53       DOPC     H2R      HAL2     0.900000E-01   1.00800           0
      7711 MEMB     53       DOPC     H2S      HAL2     0.900000E-01   1.00800           0
      7712 MEMB     53       DOPC     C3       CTL2     0.800000E-01   12.0110           0
      7713 MEMB     53       DOPC     HX       HAL2     0.900000E-01   1.00800           0
      7714 MEMB     53       DOPC     HY       HAL2     0.900000E-01   1.00800           0
      7715 MEMB     53       DOPC     O31      OSL     -0.490000       15.9994           0
      7716 MEMB     53       DOPC     C31      CL       0.900000       12.0110           0
      7717 MEMB     53       DOPC     O32      OBL     -0.630000       15.9994           0
      7718 MEMB     53       DOPC     C32      CTL2    -0.220000       12.0110           0
      7719 MEMB     53       DOPC     H2X      HAL2     0.900000E-01   1.00800           0
      7720 MEMB     53       DOPC     H2Y      HAL2     0.900000E-01   1.00800           0
      7721 MEMB     53       DOPC     C23      CTL2    -0.180000       12.0110           0
      7722 MEMB     53       DOPC     H3R      HAL2     0.900000E-01   1.00800           0
      7723 MEMB     53       DOPC     H3S      HAL2     0.900000E-01   1.00800           0
      7724 MEMB     53       DOPC     C24      CTL2    -0.180000       12.0110           0
      7725 MEMB     53       DOPC     H4R      HAL2     0.900000E-01   1.00800           0
      7726 MEMB     53       DOPC     H4S      HAL2     0.900000E-01   1.00800           0
      7727 MEMB     53       DOPC     C25      CTL2    -0.180000       12.0110           0
      7728 MEMB     53       DOPC     H5R      HAL2     0.900000E-01   1.00800           0
      7729 MEMB     53       DOPC     H5S      HAL2     0.900000E-01   1.00800           0
      7730 MEMB     53       DOPC     C26      CTL2    -0.180000       12.0110           0
      7731 MEMB     53       DOPC     H6R      HAL2     0.900000E-01   1.00800           0
      7732 MEMB     53       DOPC     H6S      HAL2     0.900000E-01   1.00800           0
      7733 MEMB     53       DOPC     C27      CTL2    -0.180000       12.0110           0
      7734 MEMB     53       DOPC     H7R      HAL2     0.900000E-01   1.00800           0
      7735 MEMB     53       DOPC     H7S      HAL2     0.900000E-01   1.00800           0
      7736 MEMB     53       DOPC     C28      CTL2    -0.180000       12.0110           0
      7737 MEMB     53       DOPC     H8R      HAL2     0.900000E-01   1.00800           0
      7738 MEMB     53       DOPC     H8S      HAL2     0.900000E-01   1.00800           0
      7739 MEMB     53       DOPC     C29      CEL1    -0.150000       12.0110           0
      7740 MEMB     53       DOPC     H9R      HEL1     0.150000       1.00800           0
      7741 MEMB     53       DOPC     C210     CEL1    -0.150000       12.0110           0
      7742 MEMB     53       DOPC     H10R     HEL1     0.150000       1.00800           0
      7743 MEMB     53       DOPC     C211     CTL2    -0.180000       12.0110           0
      7744 MEMB     53       DOPC     H11R     HAL2     0.900000E-01   1.00800           0
      7745 MEMB     53       DOPC     H11S     HAL2     0.900000E-01   1.00800           0
      7746 MEMB     53       DOPC     C212     CTL2    -0.180000       12.0110           0
      7747 MEMB     53       DOPC     H12R     HAL2     0.900000E-01   1.00800           0
      7748 MEMB     53       DOPC     H12S     HAL2     0.900000E-01   1.00800           0
      7749 MEMB     53       DOPC     C213     CTL2    -0.180000       12.0110           0
      7750 MEMB     53       DOPC     H13R     HAL2     0.900000E-01   1.00800           0
      7751 MEMB     53       DOPC     H13S     HAL2     0.900000E-01   1.00800           0
      7752 MEMB     53       DOPC     C214     CTL2    -0.180000       12.0110           0
      7753 MEMB     53       DOPC     H14R     HAL2     0.900000E-01   1.00800           0
      7754 MEMB     53       DOPC     H14S     HAL2     0.900000E-01   1.00800           0
      7755 MEMB     53       DOPC     C215     CTL2    -0.180000       12.0110           0
      7756 MEMB     53       DOPC     H15R     HAL2     0.900000E-01   1.00800           0
      7757 MEMB     53       DOPC     H15S     HAL2     0.900000E-01   1.00800           0
      7758 MEMB     53       DOPC     C216     CTL2    -0.180000       12.0110           0
      7759 MEMB     53       DOPC     H16R     HAL2     0.900000E-01   1.00800           0
      7760 MEMB     53       DOPC     H16S     HAL2     0.900000E-01   1.00800           0
      7761 MEMB     53       DOPC     C217     CTL2    -0.180000       12.0110           0
      7762 MEMB     53       DOPC     H17R     HAL2     0.900000E-01   1.00800           0
      7763 MEMB     53       DOPC     H17S     HAL2     0.900000E-01   1.00800           0
      7764 MEMB     53       DOPC     C218     CTL3    -0.270000       12.0110           0
      7765 MEMB     53       DOPC     H18R     HAL3     0.900000E-01   1.00800           0
      7766 MEMB     53       DOPC     H18S     HAL3     0.900000E-01   1.00800           0
      7767 MEMB     53       DOPC     H18T     HAL3     0.900000E-01   1.00800           0
      7768 MEMB     53       DOPC     C33      CTL2    -0.180000       12.0110           0
      7769 MEMB     53       DOPC     H3X      HAL2     0.900000E-01   1.00800           0
      7770 MEMB     53       DOPC     H3Y      HAL2     0.900000E-01   1.00800           0
      7771 MEMB     53       DOPC     C34      CTL2    -0.180000       12.0110           0
      7772 MEMB     53       DOPC     H4X      HAL2     0.900000E-01   1.00800           0
      7773 MEMB     53       DOPC     H4Y      HAL2     0.900000E-01   1.00800           0
      7774 MEMB     53       DOPC     C35      CTL2    -0.180000       12.0110           0
      7775 MEMB     53       DOPC     H5X      HAL2     0.900000E-01   1.00800           0
      7776 MEMB     53       DOPC     H5Y      HAL2     0.900000E-01   1.00800           0
      7777 MEMB     53       DOPC     C36      CTL2    -0.180000       12.0110           0
      7778 MEMB     53       DOPC     H6X      HAL2     0.900000E-01   1.00800           0
      7779 MEMB     53       DOPC     H6Y      HAL2     0.900000E-01   1.00800           0
      7780 MEMB     53       DOPC     C37      CTL2    -0.180000       12.0110           0
      7781 MEMB     53       DOPC     H7X      HAL2     0.900000E-01   1.00800           0
      7782 MEMB     53       DOPC     H7Y      HAL2     0.900000E-01   1.00800           0
      7783 MEMB     53       DOPC     C38      CTL2    -0.180000       12.0110           0
      7784 MEMB     53       DOPC     H8X      HAL2     0.900000E-01   1.00800           0
      7785 MEMB     53       DOPC     H8Y      HAL2     0.900000E-01   1.00800           0
      7786 MEMB     53       DOPC     C39      CEL1    -0.150000       12.0110           0
      7787 MEMB     53       DOPC     H9X      HEL1     0.150000       1.00800           0
      7788 MEMB     53       DOPC     C310     CEL1    -0.150000       12.0110           0
      7789 MEMB     53       DOPC     H10X     HEL1     0.150000       1.00800           0
      7790 MEMB     53       DOPC     C311     CTL2    -0.180000       12.0110           0
      7791 MEMB     53       DOPC     H11X     HAL2     0.900000E-01   1.00800           0
      7792 MEMB     53       DOPC     H11Y     HAL2     0.900000E-01   1.00800           0
      7793 MEMB     53       DOPC     C312     CTL2    -0.180000       12.0110           0
      7794 MEMB     53       DOPC     H12X     HAL2     0.900000E-01   1.00800           0
      7795 MEMB     53       DOPC     H12Y     HAL2     0.900000E-01   1.00800           0
      7796 MEMB     53       DOPC     C313     CTL2    -0.180000       12.0110           0
      7797 MEMB     53       DOPC     H13X     HAL2     0.900000E-01   1.00800           0
      7798 MEMB     53       DOPC     H13Y     HAL2     0.900000E-01   1.00800           0
      7799 MEMB     53       DOPC     C314     CTL2    -0.180000       12.0110           0
      7800 MEMB     53       DOPC     H14X     HAL2     0.900000E-01   1.00800           0
      7801 MEMB     53       DOPC     H14Y     HAL2     0.900000E-01   1.00800           0
      7802 MEMB     53       DOPC     C315     CTL2    -0.180000       12.0110           0
      7803 MEMB     53       DOPC     H15X     HAL2     0.900000E-01   1.00800           0
      7804 MEMB     53       DOPC     H15Y     HAL2     0.900000E-01   1.00800           0
      7805 MEMB     53       DOPC     C316     CTL2    -0.180000       12.0110           0
      7806 MEMB     53       DOPC     H16X     HAL2     0.900000E-01   1.00800           0
      7807 MEMB     53       DOPC     H16Y     HAL2     0.900000E-01   1.00800           0
      7808 MEMB     53       DOPC     C317     CTL2    -0.180000       12.0110           0
      7809 MEMB     53       DOPC     H17X     HAL2     0.900000E-01   1.00800           0
      7810 MEMB     53       DOPC     H17Y     HAL2     0.900000E-01   1.00800           0
      7811 MEMB     53       DOPC     C318     CTL3    -0.270000       12.0110           0
      7812 MEMB     53       DOPC     H18X     HAL3     0.900000E-01   1.00800           0
      7813 MEMB     53       DOPC     H18Y     HAL3     0.900000E-01   1.00800           0
      7814 MEMB     53       DOPC     H18Z     HAL3     0.900000E-01   1.00800           0
      7815 MEMB     54       DOPC     N        NTL     -0.600000       14.0070           0
      7816 MEMB     54       DOPC     C12      CTL2    -0.100000       12.0110           0
      7817 MEMB     54       DOPC     H12A     HL       0.250000       1.00800           0
      7818 MEMB     54       DOPC     H12B     HL       0.250000       1.00800           0
      7819 MEMB     54       DOPC     C13      CTL5    -0.350000       12.0110           0
      7820 MEMB     54       DOPC     H13A     HL       0.250000       1.00800           0
      7821 MEMB     54       DOPC     H13B     HL       0.250000       1.00800           0
      7822 MEMB     54       DOPC     H13C     HL       0.250000       1.00800           0
      7823 MEMB     54       DOPC     C14      CTL5    -0.350000       12.0110           0
      7824 MEMB     54       DOPC     H14A     HL       0.250000       1.00800           0
      7825 MEMB     54       DOPC     H14B     HL       0.250000       1.00800           0
      7826 MEMB     54       DOPC     H14C     HL       0.250000       1.00800           0
      7827 MEMB     54       DOPC     C15      CTL5    -0.350000       12.0110           0
      7828 MEMB     54       DOPC     H15A     HL       0.250000       1.00800           0
      7829 MEMB     54       DOPC     H15B     HL       0.250000       1.00800           0
      7830 MEMB     54       DOPC     H15C     HL       0.250000       1.00800           0
      7831 MEMB     54       DOPC     C11      CTL2    -0.800000E-01   12.0110           0
      7832 MEMB     54       DOPC     H11A     HAL2     0.900000E-01   1.00800           0
      7833 MEMB     54       DOPC     H11B     HAL2     0.900000E-01   1.00800           0
      7834 MEMB     54       DOPC     P        PL        1.50000       30.9740           0
      7835 MEMB     54       DOPC     O13      O2L     -0.780000       15.9994           0
      7836 MEMB     54       DOPC     O14      O2L     -0.780000       15.9994           0
      7837 MEMB     54       DOPC     O12      OSLP    -0.570000       15.9994           0
      7838 MEMB     54       DOPC     O11      OSLP    -0.570000       15.9994           0
      7839 MEMB     54       DOPC     C1       CTL2    -0.800000E-01   12.0110           0
      7840 MEMB     54       DOPC     HA       HAL2     0.900000E-01   1.00800           0
      7841 MEMB     54       DOPC     HB       HAL2     0.900000E-01   1.00800           0
      7842 MEMB     54       DOPC     C2       CTL1     0.170000       12.0110           0
      7843 MEMB     54       DOPC     HS       HAL1     0.900000E-01   1.00800           0
      7844 MEMB     54       DOPC     O21      OSL     -0.490000       15.9994           0
      7845 MEMB     54       DOPC     C21      CL       0.900000       12.0110           0
      7846 MEMB     54       DOPC     O22      OBL     -0.630000       15.9994           0
      7847 MEMB     54       DOPC     C22      CTL2    -0.220000       12.0110           0
      7848 MEMB     54       DOPC     H2R      HAL2     0.900000E-01   1.00800           0
      7849 MEMB     54       DOPC     H2S      HAL2     0.900000E-01   1.00800           0
      7850 MEMB     54       DOPC     C3       CTL2     0.800000E-01   12.0110           0
      7851 MEMB     54       DOPC     HX       HAL2     0.900000E-01   1.00800           0
      7852 MEMB     54       DOPC     HY       HAL2     0.900000E-01   1.00800           0
      7853 MEMB     54       DOPC     O31      OSL     -0.490000       15.9994           0
      7854 MEMB     54       DOPC     C31      CL       0.900000       12.0110           0
      7855 MEMB     54       DOPC     O32      OBL     -0.630000       15.9994           0
      7856 MEMB     54       DOPC     C32      CTL2    -0.220000       12.0110           0
      7857 MEMB     54       DOPC     H2X      HAL2     0.900000E-01   1.00800           0
      7858 MEMB     54       DOPC     H2Y      HAL2     0.900000E-01   1.00800           0
      7859 MEMB     54       DOPC     C23      CTL2    -0.180000       12.0110           0
      7860 MEMB     54       DOPC     H3R      HAL2     0.900000E-01   1.00800           0
      7861 MEMB     54       DOPC     H3S      HAL2     0.900000E-01   1.00800           0
      7862 MEMB     54       DOPC     C24      CTL2    -0.180000       12.0110           0
      7863 MEMB     54       DOPC     H4R      HAL2     0.900000E-01   1.00800           0
      7864 MEMB     54       DOPC     H4S      HAL2     0.900000E-01   1.00800           0
      7865 MEMB     54       DOPC     C25      CTL2    -0.180000       12.0110           0
      7866 MEMB     54       DOPC     H5R      HAL2     0.900000E-01   1.00800           0
      7867 MEMB     54       DOPC     H5S      HAL2     0.900000E-01   1.00800           0
      7868 MEMB     54       DOPC     C26      CTL2    -0.180000       12.0110           0
      7869 MEMB     54       DOPC     H6R      HAL2     0.900000E-01   1.00800           0
      7870 MEMB     54       DOPC     H6S      HAL2     0.900000E-01   1.00800           0
      7871 MEMB     54       DOPC     C27      CTL2    -0.180000       12.0110           0
      7872 MEMB     54       DOPC     H7R      HAL2     0.900000E-01   1.00800           0
      7873 MEMB     54       DOPC     H7S      HAL2     0.900000E-01   1.00800           0
      7874 MEMB     54       DOPC     C28      CTL2    -0.180000       12.0110           0
      7875 MEMB     54       DOPC     H8R      HAL2     0.900000E-01   1.00800           0
      7876 MEMB     54       DOPC     H8S      HAL2     0.900000E-01   1.00800           0
      7877 MEMB     54       DOPC     C29      CEL1    -0.150000       12.0110           0
      7878 MEMB     54       DOPC     H9R      HEL1     0.150000       1.00800           0
      7879 MEMB     54       DOPC     C210     CEL1    -0.150000       12.0110           0
      7880 MEMB     54       DOPC     H10R     HEL1     0.150000       1.00800           0
      7881 MEMB     54       DOPC     C211     CTL2    -0.180000       12.0110           0
      7882 MEMB     54       DOPC     H11R     HAL2     0.900000E-01   1.00800           0
      7883 MEMB     54       DOPC     H11S     HAL2     0.900000E-01   1.00800           0
      7884 MEMB     54       DOPC     C212     CTL2    -0.180000       12.0110           0
      7885 MEMB     54       DOPC     H12R     HAL2     0.900000E-01   1.00800           0
      7886 MEMB     54       DOPC     H12S     HAL2     0.900000E-01   1.00800           0
      7887 MEMB     54       DOPC     C213     CTL2    -0.180000       12.0110           0
      7888 MEMB     54       DOPC     H13R     HAL2     0.900000E-01   1.00800           0
      7889 MEMB     54       DOPC     H13S     HAL2     0.900000E-01   1.00800           0
      7890 MEMB     54       DOPC     C214     CTL2    -0.180000       12.0110           0
      7891 MEMB     54       DOPC     H14R     HAL2     0.900000E-01   1.00800           0
      7892 MEMB     54       DOPC     H14S     HAL2     0.900000E-01   1.00800           0
      7893 MEMB     54       DOPC     C215     CTL2    -0.180000       12.0110           0
      7894 MEMB     54       DOPC     H15R     HAL2     0.900000E-01   1.00800           0
      7895 MEMB     54       DOPC     H15S     HAL2     0.900000E-01   1.00800           0
      7896 MEMB     54       DOPC     C216     CTL2    -0.180000       12.0110           0
      7897 MEMB     54       DOPC     H16R     HAL2     0.900000E-01   1.00800           0
      7898 MEMB     54       DOPC     H16S     HAL2     0.900000E-01   1.00800           0
      7899 MEMB     54       DOPC     C217     CTL2    -0.180000       12.0110           0
      7900 MEMB     54       DOPC     H17R     HAL2     0.900000E-01   1.00800           0
      7901 MEMB     54       DOPC     H17S     HAL2     0.900000E-01   1.00800           0
      7902 MEMB     54       DOPC     C218     CTL3    -0.270000       12.0110           0
      7903 MEMB     54       DOPC     H18R     HAL3     0.900000E-01   1.00800           0
      7904 MEMB     54       DOPC     H18S     HAL3     0.900000E-01   1.00800           0
      7905 MEMB     54       DOPC     H18T     HAL3     0.900000E-01   1.00800           0
      7906 MEMB     54       DOPC     C33      CTL2    -0.180000       12.0110           0
      7907 MEMB     54       DOPC     H3X      HAL2     0.900000E-01   1.00800           0
      7908 MEMB     54       DOPC     H3Y      HAL2     0.900000E-01   1.00800           0
      7909 MEMB     54       DOPC     C34      CTL2    -0.180000       12.0110           0
      7910 MEMB     54       DOPC     H4X      HAL2     0.900000E-01   1.00800           0
      7911 MEMB     54       DOPC     H4Y      HAL2     0.900000E-01   1.00800           0
      7912 MEMB     54       DOPC     C35      CTL2    -0.180000       12.0110           0
      7913 MEMB     54       DOPC     H5X      HAL2     0.900000E-01   1.00800           0
      7914 MEMB     54       DOPC     H5Y      HAL2     0.900000E-01   1.00800           0
      7915 MEMB     54       DOPC     C36      CTL2    -0.180000       12.0110           0
      7916 MEMB     54       DOPC     H6X      HAL2     0.900000E-01   1.00800           0
      7917 MEMB     54       DOPC     H6Y      HAL2     0.900000E-01   1.00800           0
      7918 MEMB     54       DOPC     C37      CTL2    -0.180000       12.0110           0
      7919 MEMB     54       DOPC     H7X      HAL2     0.900000E-01   1.00800           0
      7920 MEMB     54       DOPC     H7Y      HAL2     0.900000E-01   1.00800           0
      7921 MEMB     54       DOPC     C38      CTL2    -0.180000       12.0110           0
      7922 MEMB     54       DOPC     H8X      HAL2     0.900000E-01   1.00800           0
      7923 MEMB     54       DOPC     H8Y      HAL2     0.900000E-01   1.00800           0
      7924 MEMB     54       DOPC     C39      CEL1    -0.150000       12.0110           0
      7925 MEMB     54       DOPC     H9X      HEL1     0.150000       1.00800           0
      7926 MEMB     54       DOPC     C310     CEL1    -0.150000       12.0110           0
      7927 MEMB     54       DOPC     H10X     HEL1     0.150000       1.00800           0
      7928 MEMB     54       DOPC     C311     CTL2    -0.180000       12.0110           0
      7929 MEMB     54       DOPC     H11X     HAL2     0.900000E-01   1.00800           0
      7930 MEMB     54       DOPC     H11Y     HAL2     0.900000E-01   1.00800           0
      7931 MEMB     54       DOPC     C312     CTL2    -0.180000       12.0110           0
      7932 MEMB     54       DOPC     H12X     HAL2     0.900000E-01   1.00800           0
      7933 MEMB     54       DOPC     H12Y     HAL2     0.900000E-01   1.00800           0
      7934 MEMB     54       DOPC     C313     CTL2    -0.180000       12.0110           0
      7935 MEMB     54       DOPC     H13X     HAL2     0.900000E-01   1.00800           0
      7936 MEMB     54       DOPC     H13Y     HAL2     0.900000E-01   1.00800           0
      7937 MEMB     54       DOPC     C314     CTL2    -0.180000       12.0110           0
      7938 MEMB     54       DOPC     H14X     HAL2     0.900000E-01   1.00800           0
      7939 MEMB     54       DOPC     H14Y     HAL2     0.900000E-01   1.00800           0
      7940 MEMB     54       DOPC     C315     CTL2    -0.180000       12.0110           0
      7941 MEMB     54       DOPC     H15X     HAL2     0.900000E-01   1.00800           0
      7942 MEMB     54       DOPC     H15Y     HAL2     0.900000E-01   1.00800           0
      7943 MEMB     54       DOPC     C316     CTL2    -0.180000       12.0110           0
      7944 MEMB     54       DOPC     H16X     HAL2     0.900000E-01   1.00800           0
      7945 MEMB     54       DOPC     H16Y     HAL2     0.900000E-01   1.00800           0
      7946 MEMB     54       DOPC     C317     CTL2    -0.180000       12.0110           0
      7947 MEMB     54       DOPC     H17X     HAL2     0.900000E-01   1.00800           0
      7948 MEMB     54       DOPC     H17Y     HAL2     0.900000E-01   1.00800           0
      7949 MEMB     54       DOPC     C318     CTL3    -0.270000       12.0110           0
      7950 MEMB     54       DOPC     H18X     HAL3     0.900000E-01   1.00800           0
      7951 MEMB     54       DOPC     H18Y     HAL3     0.900000E-01   1.00800           0
      7952 MEMB     54       DOPC     H18Z     HAL3     0.900000E-01   1.00800           0
      7953 MEMB     55       DOPC     N        NTL     -0.600000       14.0070           0
      7954 MEMB     55       DOPC     C12      CTL2    -0.100000       12.0110           0
      7955 MEMB     55       DOPC     H12A     HL       0.250000       1.00800           0
      7956 MEMB     55       DOPC     H12B     HL       0.250000       1.00800           0
      7957 MEMB     55       DOPC     C13      CTL5    -0.350000       12.0110           0
      7958 MEMB     55       DOPC     H13A     HL       0.250000       1.00800           0
      7959 MEMB     55       DOPC     H13B     HL       0.250000       1.00800           0
      7960 MEMB     55       DOPC     H13C     HL       0.250000       1.00800           0
      7961 MEMB     55       DOPC     C14      CTL5    -0.350000       12.0110           0
      7962 MEMB     55       DOPC     H14A     HL       0.250000       1.00800           0
      7963 MEMB     55       DOPC     H14B     HL       0.250000       1.00800           0
      7964 MEMB     55       DOPC     H14C     HL       0.250000       1.00800           0
      7965 MEMB     55       DOPC     C15      CTL5    -0.350000       12.0110           0
      7966 MEMB     55       DOPC     H15A     HL       0.250000       1.00800           0
      7967 MEMB     55       DOPC     H15B     HL       0.250000       1.00800           0
      7968 MEMB     55       DOPC     H15C     HL       0.250000       1.00800           0
      7969 MEMB     55       DOPC     C11      CTL2    -0.800000E-01   12.0110           0
      7970 MEMB     55       DOPC     H11A     HAL2     0.900000E-01   1.00800           0
      7971 MEMB     55       DOPC     H11B     HAL2     0.900000E-01   1.00800           0
      7972 MEMB     55       DOPC     P        PL        1.50000       30.9740           0
      7973 MEMB     55       DOPC     O13      O2L     -0.780000       15.9994           0
      7974 MEMB     55       DOPC     O14      O2L     -0.780000       15.9994           0
      7975 MEMB     55       DOPC     O12      OSLP    -0.570000       15.9994           0
      7976 MEMB     55       DOPC     O11      OSLP    -0.570000       15.9994           0
      7977 MEMB     55       DOPC     C1       CTL2    -0.800000E-01   12.0110           0
      7978 MEMB     55       DOPC     HA       HAL2     0.900000E-01   1.00800           0
      7979 MEMB     55       DOPC     HB       HAL2     0.900000E-01   1.00800           0
      7980 MEMB     55       DOPC     C2       CTL1     0.170000       12.0110           0
      7981 MEMB     55       DOPC     HS       HAL1     0.900000E-01   1.00800           0
      7982 MEMB     55       DOPC     O21      OSL     -0.490000       15.9994           0
      7983 MEMB     55       DOPC     C21      CL       0.900000       12.0110           0
      7984 MEMB     55       DOPC     O22      OBL     -0.630000       15.9994           0
      7985 MEMB     55       DOPC     C22      CTL2    -0.220000       12.0110           0
      7986 MEMB     55       DOPC     H2R      HAL2     0.900000E-01   1.00800           0
      7987 MEMB     55       DOPC     H2S      HAL2     0.900000E-01   1.00800           0
      7988 MEMB     55       DOPC     C3       CTL2     0.800000E-01   12.0110           0
      7989 MEMB     55       DOPC     HX       HAL2     0.900000E-01   1.00800           0
      7990 MEMB     55       DOPC     HY       HAL2     0.900000E-01   1.00800           0
      7991 MEMB     55       DOPC     O31      OSL     -0.490000       15.9994           0
      7992 MEMB     55       DOPC     C31      CL       0.900000       12.0110           0
      7993 MEMB     55       DOPC     O32      OBL     -0.630000       15.9994           0
      7994 MEMB     55       DOPC     C32      CTL2    -0.220000       12.0110           0
      7995 MEMB     55       DOPC     H2X      HAL2     0.900000E-01   1.00800           0
      7996 MEMB     55       DOPC     H2Y      HAL2     0.900000E-01   1.00800           0
      7997 MEMB     55       DOPC     C23      CTL2    -0.180000       12.0110           0
      7998 MEMB     55       DOPC     H3R      HAL2     0.900000E-01   1.00800           0
      7999 MEMB     55       DOPC     H3S      HAL2     0.900000E-01   1.00800           0
      8000 MEMB     55       DOPC     C24      CTL2    -0.180000       12.0110           0
      8001 MEMB     55       DOPC     H4R      HAL2     0.900000E-01   1.00800           0
      8002 MEMB     55       DOPC     H4S      HAL2     0.900000E-01   1.00800           0
      8003 MEMB     55       DOPC     C25      CTL2    -0.180000       12.0110           0
      8004 MEMB     55       DOPC     H5R      HAL2     0.900000E-01   1.00800           0
      8005 MEMB     55       DOPC     H5S      HAL2     0.900000E-01   1.00800           0
      8006 MEMB     55       DOPC     C26      CTL2    -0.180000       12.0110           0
      8007 MEMB     55       DOPC     H6R      HAL2     0.900000E-01   1.00800           0
      8008 MEMB     55       DOPC     H6S      HAL2     0.900000E-01   1.00800           0
      8009 MEMB     55       DOPC     C27      CTL2    -0.180000       12.0110           0
      8010 MEMB     55       DOPC     H7R      HAL2     0.900000E-01   1.00800           0
      8011 MEMB     55       DOPC     H7S      HAL2     0.900000E-01   1.00800           0
      8012 MEMB     55       DOPC     C28      CTL2    -0.180000       12.0110           0
      8013 MEMB     55       DOPC     H8R      HAL2     0.900000E-01   1.00800           0
      8014 MEMB     55       DOPC     H8S      HAL2     0.900000E-01   1.00800           0
      8015 MEMB     55       DOPC     C29      CEL1    -0.150000       12.0110           0
      8016 MEMB     55       DOPC     H9R      HEL1     0.150000       1.00800           0
      8017 MEMB     55       DOPC     C210     CEL1    -0.150000       12.0110           0
      8018 MEMB     55       DOPC     H10R     HEL1     0.150000       1.00800           0
      8019 MEMB     55       DOPC     C211     CTL2    -0.180000       12.0110           0
      8020 MEMB     55       DOPC     H11R     HAL2     0.900000E-01   1.00800           0
      8021 MEMB     55       DOPC     H11S     HAL2     0.900000E-01   1.00800           0
      8022 MEMB     55       DOPC     C212     CTL2    -0.180000       12.0110           0
      8023 MEMB     55       DOPC     H12R     HAL2     0.900000E-01   1.00800           0
      8024 MEMB     55       DOPC     H12S     HAL2     0.900000E-01   1.00800           0
      8025 MEMB     55       DOPC     C213     CTL2    -0.180000       12.0110           0
      8026 MEMB     55       DOPC     H13R     HAL2     0.900000E-01   1.00800           0
      8027 MEMB     55       DOPC     H13S     HAL2     0.900000E-01   1.00800           0
      8028 MEMB     55       DOPC     C214     CTL2    -0.180000       12.0110           0
      8029 MEMB     55       DOPC     H14R     HAL2     0.900000E-01   1.00800           0
      8030 MEMB     55       DOPC     H14S     HAL2     0.900000E-01   1.00800           0
      8031 MEMB     55       DOPC     C215     CTL2    -0.180000       12.0110           0
      8032 MEMB     55       DOPC     H15R     HAL2     0.900000E-01   1.00800           0
      8033 MEMB     55       DOPC     H15S     HAL2     0.900000E-01   1.00800           0
      8034 MEMB     55       DOPC     C216     CTL2    -0.180000       12.0110           0
      8035 MEMB     55       DOPC     H16R     HAL2     0.900000E-01   1.00800           0
      8036 MEMB     55       DOPC     H16S     HAL2     0.900000E-01   1.00800           0
      8037 MEMB     55       DOPC     C217     CTL2    -0.180000       12.0110           0
      8038 MEMB     55       DOPC     H17R     HAL2     0.900000E-01   1.00800           0
      8039 MEMB     55       DOPC     H17S     HAL2     0.900000E-01   1.00800           0
      8040 MEMB     55       DOPC     C218     CTL3    -0.270000       12.0110           0
      8041 MEMB     55       DOPC     H18R     HAL3     0.900000E-01   1.00800           0
      8042 MEMB     55       DOPC     H18S     HAL3     0.900000E-01   1.00800           0
      8043 MEMB     55       DOPC     H18T     HAL3     0.900000E-01   1.00800           0
      8044 MEMB     55       DOPC     C33      CTL2    -0.180000       12.0110           0
      8045 MEMB     55       DOPC     H3X      HAL2     0.900000E-01   1.00800           0
      8046 MEMB     55       DOPC     H3Y      HAL2     0.900000E-01   1.00800           0
      8047 MEMB     55       DOPC     C34      CTL2    -0.180000       12.0110           0
      8048 MEMB     55       DOPC     H4X      HAL2     0.900000E-01   1.00800           0
      8049 MEMB     55       DOPC     H4Y      HAL2     0.900000E-01   1.00800           0
      8050 MEMB     55       DOPC     C35      CTL2    -0.180000       12.0110           0
      8051 MEMB     55       DOPC     H5X      HAL2     0.900000E-01   1.00800           0
      8052 MEMB     55       DOPC     H5Y      HAL2     0.900000E-01   1.00800           0
      8053 MEMB     55       DOPC     C36      CTL2    -0.180000       12.0110           0
      8054 MEMB     55       DOPC     H6X      HAL2     0.900000E-01   1.00800           0
      8055 MEMB     55       DOPC     H6Y      HAL2     0.900000E-01   1.00800           0
      8056 MEMB     55       DOPC     C37      CTL2    -0.180000       12.0110           0
      8057 MEMB     55       DOPC     H7X      HAL2     0.900000E-01   1.00800           0
      8058 MEMB     55       DOPC     H7Y      HAL2     0.900000E-01   1.00800           0
      8059 MEMB     55       DOPC     C38      CTL2    -0.180000       12.0110           0
      8060 MEMB     55       DOPC     H8X      HAL2     0.900000E-01   1.00800           0
      8061 MEMB     55       DOPC     H8Y      HAL2     0.900000E-01   1.00800           0
      8062 MEMB     55       DOPC     C39      CEL1    -0.150000       12.0110           0
      8063 MEMB     55       DOPC     H9X      HEL1     0.150000       1.00800           0
      8064 MEMB     55       DOPC     C310     CEL1    -0.150000       12.0110           0
      8065 MEMB     55       DOPC     H10X     HEL1     0.150000       1.00800           0
      8066 MEMB     55       DOPC     C311     CTL2    -0.180000       12.0110           0
      8067 MEMB     55       DOPC     H11X     HAL2     0.900000E-01   1.00800           0
      8068 MEMB     55       DOPC     H11Y     HAL2     0.900000E-01   1.00800           0
      8069 MEMB     55       DOPC     C312     CTL2    -0.180000       12.0110           0
      8070 MEMB     55       DOPC     H12X     HAL2     0.900000E-01   1.00800           0
      8071 MEMB     55       DOPC     H12Y     HAL2     0.900000E-01   1.00800           0
      8072 MEMB     55       DOPC     C313     CTL2    -0.180000       12.0110           0
      8073 MEMB     55       DOPC     H13X     HAL2     0.900000E-01   1.00800           0
      8074 MEMB     55       DOPC     H13Y     HAL2     0.900000E-01   1.00800           0
      8075 MEMB     55       DOPC     C314     CTL2    -0.180000       12.0110           0
      8076 MEMB     55       DOPC     H14X     HAL2     0.900000E-01   1.00800           0
      8077 MEMB     55       DOPC     H14Y     HAL2     0.900000E-01   1.00800           0
      8078 MEMB     55       DOPC     C315     CTL2    -0.180000       12.0110           0
      8079 MEMB     55       DOPC     H15X     HAL2     0.900000E-01   1.00800           0
      8080 MEMB     55       DOPC     H15Y     HAL2     0.900000E-01   1.00800           0
      8081 MEMB     55       DOPC     C316     CTL2    -0.180000       12.0110           0
      8082 MEMB     55       DOPC     H16X     HAL2     0.900000E-01   1.00800           0
      8083 MEMB     55       DOPC     H16Y     HAL2     0.900000E-01   1.00800           0
      8084 MEMB     55       DOPC     C317     CTL2    -0.180000       12.0110           0
      8085 MEMB     55       DOPC     H17X     HAL2     0.900000E-01   1.00800           0
      8086 MEMB     55       DOPC     H17Y     HAL2     0.900000E-01   1.00800           0
      8087 MEMB     55       DOPC     C318     CTL3    -0.270000       12.0110           0
      8088 MEMB     55       DOPC     H18X     HAL3     0.900000E-01   1.00800           0
      8089 MEMB     55       DOPC     H18Y     HAL3     0.900000E-01   1.00800           0
      8090 MEMB     55       DOPC     H18Z     HAL3     0.900000E-01   1.00800           0
      8091 MEMB     56       DOPC     N        NTL     -0.600000       14.0070           0
      8092 MEMB     56       DOPC     C12      CTL2    -0.100000       12.0110           0
      8093 MEMB     56       DOPC     H12A     HL       0.250000       1.00800           0
      8094 MEMB     56       DOPC     H12B     HL       0.250000       1.00800           0
      8095 MEMB     56       DOPC     C13      CTL5    -0.350000       12.0110           0
      8096 MEMB     56       DOPC     H13A     HL       0.250000       1.00800           0
      8097 MEMB     56       DOPC     H13B     HL       0.250000       1.00800           0
      8098 MEMB     56       DOPC     H13C     HL       0.250000       1.00800           0
      8099 MEMB     56       DOPC     C14      CTL5    -0.350000       12.0110           0
      8100 MEMB     56       DOPC     H14A     HL       0.250000       1.00800           0
      8101 MEMB     56       DOPC     H14B     HL       0.250000       1.00800           0
      8102 MEMB     56       DOPC     H14C     HL       0.250000       1.00800           0
      8103 MEMB     56       DOPC     C15      CTL5    -0.350000       12.0110           0
      8104 MEMB     56       DOPC     H15A     HL       0.250000       1.00800           0
      8105 MEMB     56       DOPC     H15B     HL       0.250000       1.00800           0
      8106 MEMB     56       DOPC     H15C     HL       0.250000       1.00800           0
      8107 MEMB     56       DOPC     C11      CTL2    -0.800000E-01   12.0110           0
      8108 MEMB     56       DOPC     H11A     HAL2     0.900000E-01   1.00800           0
      8109 MEMB     56       DOPC     H11B     HAL2     0.900000E-01   1.00800           0
      8110 MEMB     56       DOPC     P        PL        1.50000       30.9740           0
      8111 MEMB     56       DOPC     O13      O2L     -0.780000       15.9994           0
      8112 MEMB     56       DOPC     O14      O2L     -0.780000       15.9994           0
      8113 MEMB     56       DOPC     O12      OSLP    -0.570000       15.9994           0
      8114 MEMB     56       DOPC     O11      OSLP    -0.570000       15.9994           0
      8115 MEMB     56       DOPC     C1       CTL2    -0.800000E-01   12.0110           0
      8116 MEMB     56       DOPC     HA       HAL2     0.900000E-01   1.00800           0
      8117 MEMB     56       DOPC     HB       HAL2     0.900000E-01   1.00800           0
      8118 MEMB     56       DOPC     C2       CTL1     0.170000       12.0110           0
      8119 MEMB     56       DOPC     HS       HAL1     0.900000E-01   1.00800           0
      8120 MEMB     56       DOPC     O21      OSL     -0.490000       15.9994           0
      8121 MEMB     56       DOPC     C21      CL       0.900000       12.0110           0
      8122 MEMB     56       DOPC     O22      OBL     -0.630000       15.9994           0
      8123 MEMB     56       DOPC     C22      CTL2    -0.220000       12.0110           0
      8124 MEMB     56       DOPC     H2R      HAL2     0.900000E-01   1.00800           0
      8125 MEMB     56       DOPC     H2S      HAL2     0.900000E-01   1.00800           0
      8126 MEMB     56       DOPC     C3       CTL2     0.800000E-01   12.0110           0
      8127 MEMB     56       DOPC     HX       HAL2     0.900000E-01   1.00800           0
      8128 MEMB     56       DOPC     HY       HAL2     0.900000E-01   1.00800           0
      8129 MEMB     56       DOPC     O31      OSL     -0.490000       15.9994           0
      8130 MEMB     56       DOPC     C31      CL       0.900000       12.0110           0
      8131 MEMB     56       DOPC     O32      OBL     -0.630000       15.9994           0
      8132 MEMB     56       DOPC     C32      CTL2    -0.220000       12.0110           0
      8133 MEMB     56       DOPC     H2X      HAL2     0.900000E-01   1.00800           0
      8134 MEMB     56       DOPC     H2Y      HAL2     0.900000E-01   1.00800           0
      8135 MEMB     56       DOPC     C23      CTL2    -0.180000       12.0110           0
      8136 MEMB     56       DOPC     H3R      HAL2     0.900000E-01   1.00800           0
      8137 MEMB     56       DOPC     H3S      HAL2     0.900000E-01   1.00800           0
      8138 MEMB     56       DOPC     C24      CTL2    -0.180000       12.0110           0
      8139 MEMB     56       DOPC     H4R      HAL2     0.900000E-01   1.00800           0
      8140 MEMB     56       DOPC     H4S      HAL2     0.900000E-01   1.00800           0
      8141 MEMB     56       DOPC     C25      CTL2    -0.180000       12.0110           0
      8142 MEMB     56       DOPC     H5R      HAL2     0.900000E-01   1.00800           0
      8143 MEMB     56       DOPC     H5S      HAL2     0.900000E-01   1.00800           0
      8144 MEMB     56       DOPC     C26      CTL2    -0.180000       12.0110           0
      8145 MEMB     56       DOPC     H6R      HAL2     0.900000E-01   1.00800           0
      8146 MEMB     56       DOPC     H6S      HAL2     0.900000E-01   1.00800           0
      8147 MEMB     56       DOPC     C27      CTL2    -0.180000       12.0110           0
      8148 MEMB     56       DOPC     H7R      HAL2     0.900000E-01   1.00800           0
      8149 MEMB     56       DOPC     H7S      HAL2     0.900000E-01   1.00800           0
      8150 MEMB     56       DOPC     C28      CTL2    -0.180000       12.0110           0
      8151 MEMB     56       DOPC     H8R      HAL2     0.900000E-01   1.00800           0
      8152 MEMB     56       DOPC     H8S      HAL2     0.900000E-01   1.00800           0
      8153 MEMB     56       DOPC     C29      CEL1    -0.150000       12.0110           0
      8154 MEMB     56       DOPC     H9R      HEL1     0.150000       1.00800           0
      8155 MEMB     56       DOPC     C210     CEL1    -0.150000       12.0110           0
      8156 MEMB     56       DOPC     H10R     HEL1     0.150000       1.00800           0
      8157 MEMB     56       DOPC     C211     CTL2    -0.180000       12.0110           0
      8158 MEMB     56       DOPC     H11R     HAL2     0.900000E-01   1.00800           0
      8159 MEMB     56       DOPC     H11S     HAL2     0.900000E-01   1.00800           0
      8160 MEMB     56       DOPC     C212     CTL2    -0.180000       12.0110           0
      8161 MEMB     56       DOPC     H12R     HAL2     0.900000E-01   1.00800           0
      8162 MEMB     56       DOPC     H12S     HAL2     0.900000E-01   1.00800           0
      8163 MEMB     56       DOPC     C213     CTL2    -0.180000       12.0110           0
      8164 MEMB     56       DOPC     H13R     HAL2     0.900000E-01   1.00800           0
      8165 MEMB     56       DOPC     H13S     HAL2     0.900000E-01   1.00800           0
      8166 MEMB     56       DOPC     C214     CTL2    -0.180000       12.0110           0
      8167 MEMB     56       DOPC     H14R     HAL2     0.900000E-01   1.00800           0
      8168 MEMB     56       DOPC     H14S     HAL2     0.900000E-01   1.00800           0
      8169 MEMB     56       DOPC     C215     CTL2    -0.180000       12.0110           0
      8170 MEMB     56       DOPC     H15R     HAL2     0.900000E-01   1.00800           0
      8171 MEMB     56       DOPC     H15S     HAL2     0.900000E-01   1.00800           0
      8172 MEMB     56       DOPC     C216     CTL2    -0.180000       12.0110           0
      8173 MEMB     56       DOPC     H16R     HAL2     0.900000E-01   1.00800           0
      8174 MEMB     56       DOPC     H16S     HAL2     0.900000E-01   1.00800           0
      8175 MEMB     56       DOPC     C217     CTL2    -0.180000       12.0110           0
      8176 MEMB     56       DOPC     H17R     HAL2     0.900000E-01   1.00800           0
      8177 MEMB     56       DOPC     H17S     HAL2     0.900000E-01   1.00800           0
      8178 MEMB     56       DOPC     C218     CTL3    -0.270000       12.0110           0
      8179 MEMB     56       DOPC     H18R     HAL3     0.900000E-01   1.00800           0
      8180 MEMB     56       DOPC     H18S     HAL3     0.900000E-01   1.00800           0
      8181 MEMB     56       DOPC     H18T     HAL3     0.900000E-01   1.00800           0
      8182 MEMB     56       DOPC     C33      CTL2    -0.180000       12.0110           0
      8183 MEMB     56       DOPC     H3X      HAL2     0.900000E-01   1.00800           0
      8184 MEMB     56       DOPC     H3Y      HAL2     0.900000E-01   1.00800           0
      8185 MEMB     56       DOPC     C34      CTL2    -0.180000       12.0110           0
      8186 MEMB     56       DOPC     H4X      HAL2     0.900000E-01   1.00800           0
      8187 MEMB     56       DOPC     H4Y      HAL2     0.900000E-01   1.00800           0
      8188 MEMB     56       DOPC     C35      CTL2    -0.180000       12.0110           0
      8189 MEMB     56       DOPC     H5X      HAL2     0.900000E-01   1.00800           0
      8190 MEMB     56       DOPC     H5Y      HAL2     0.900000E-01   1.00800           0
      8191 MEMB     56       DOPC     C36      CTL2    -0.180000       12.0110           0
      8192 MEMB     56       DOPC     H6X      HAL2     0.900000E-01   1.00800           0
      8193 MEMB     56       DOPC     H6Y      HAL2     0.900000E-01   1.00800           0
      8194 MEMB     56       DOPC     C37      CTL2    -0.180000       12.0110           0
      8195 MEMB     56       DOPC     H7X      HAL2     0.900000E-01   1.00800           0
      8196 MEMB     56       DOPC     H7Y      HAL2     0.900000E-01   1.00800           0
      8197 MEMB     56       DOPC     C38      CTL2    -0.180000       12.0110           0
      8198 MEMB     56       DOPC     H8X      HAL2     0.900000E-01   1.00800           0
      8199 MEMB     56       DOPC     H8Y      HAL2     0.900000E-01   1.00800           0
      8200 MEMB     56       DOPC     C39      CEL1    -0.150000       12.0110           0
      8201 MEMB     56       DOPC     H9X      HEL1     0.150000       1.00800           0
      8202 MEMB     56       DOPC     C310     CEL1    -0.150000       12.0110           0
      8203 MEMB     56       DOPC     H10X     HEL1     0.150000       1.00800           0
      8204 MEMB     56       DOPC     C311     CTL2    -0.180000       12.0110           0
      8205 MEMB     56       DOPC     H11X     HAL2     0.900000E-01   1.00800           0
      8206 MEMB     56       DOPC     H11Y     HAL2     0.900000E-01   1.00800           0
      8207 MEMB     56       DOPC     C312     CTL2    -0.180000       12.0110           0
      8208 MEMB     56       DOPC     H12X     HAL2     0.900000E-01   1.00800           0
      8209 MEMB     56       DOPC     H12Y     HAL2     0.900000E-01   1.00800           0
      8210 MEMB     56       DOPC     C313     CTL2    -0.180000       12.0110           0
      8211 MEMB     56       DOPC     H13X     HAL2     0.900000E-01   1.00800           0
      8212 MEMB     56       DOPC     H13Y     HAL2     0.900000E-01   1.00800           0
      8213 MEMB     56       DOPC     C314     CTL2    -0.180000       12.0110           0
      8214 MEMB     56       DOPC     H14X     HAL2     0.900000E-01   1.00800           0
      8215 MEMB     56       DOPC     H14Y     HAL2     0.900000E-01   1.00800           0
      8216 MEMB     56       DOPC     C315     CTL2    -0.180000       12.0110           0
      8217 MEMB     56       DOPC     H15X     HAL2     0.900000E-01   1.00800           0
      8218 MEMB     56       DOPC     H15Y     HAL2     0.900000E-01   1.00800           0
      8219 MEMB     56       DOPC     C316     CTL2    -0.180000       12.0110           0
      8220 MEMB     56       DOPC     H16X     HAL2     0.900000E-01   1.00800           0
      8221 MEMB     56       DOPC     H16Y     HAL2     0.900000E-01   1.00800           0
      8222 MEMB     56       DOPC     C317     CTL2    -0.180000       12.0110           0
      8223 MEMB     56       DOPC     H17X     HAL2     0.900000E-01   1.00800           0
      8224 MEMB     56       DOPC     H17Y     HAL2     0.900000E-01   1.00800           0
      8225 MEMB     56       DOPC     C318     CTL3    -0.270000       12.0110           0
      8226 MEMB     56       DOPC     H18X     HAL3     0.900000E-01   1.00800           0
      8227 MEMB     56       DOPC     H18Y     HAL3     0.900000E-01   1.00800           0
      8228 MEMB     56       DOPC     H18Z     HAL3     0.900000E-01   1.00800           0
      8229 MEMB     57       DOPC     N        NTL     -0.600000       14.0070           0
      8230 MEMB     57       DOPC     C12      CTL2    -0.100000       12.0110           0
      8231 MEMB     57       DOPC     H12A     HL       0.250000       1.00800           0
      8232 MEMB     57       DOPC     H12B     HL       0.250000       1.00800           0
      8233 MEMB     57       DOPC     C13      CTL5    -0.350000       12.0110           0
      8234 MEMB     57       DOPC     H13A     HL       0.250000       1.00800           0
      8235 MEMB     57       DOPC     H13B     HL       0.250000       1.00800           0
      8236 MEMB     57       DOPC     H13C     HL       0.250000       1.00800           0
      8237 MEMB     57       DOPC     C14      CTL5    -0.350000       12.0110           0
      8238 MEMB     57       DOPC     H14A     HL       0.250000       1.00800           0
      8239 MEMB     57       DOPC     H14B     HL       0.250000       1.00800           0
      8240 MEMB     57       DOPC     H14C     HL       0.250000       1.00800           0
      8241 MEMB     57       DOPC     C15      CTL5    -0.350000       12.0110           0
      8242 MEMB     57       DOPC     H15A     HL       0.250000       1.00800           0
      8243 MEMB     57       DOPC     H15B     HL       0.250000       1.00800           0
      8244 MEMB     57       DOPC     H15C     HL       0.250000       1.00800           0
      8245 MEMB     57       DOPC     C11      CTL2    -0.800000E-01   12.0110           0
      8246 MEMB     57       DOPC     H11A     HAL2     0.900000E-01   1.00800           0
      8247 MEMB     57       DOPC     H11B     HAL2     0.900000E-01   1.00800           0
      8248 MEMB     57       DOPC     P        PL        1.50000       30.9740           0
      8249 MEMB     57       DOPC     O13      O2L     -0.780000       15.9994           0
      8250 MEMB     57       DOPC     O14      O2L     -0.780000       15.9994           0
      8251 MEMB     57       DOPC     O12      OSLP    -0.570000       15.9994           0
      8252 MEMB     57       DOPC     O11      OSLP    -0.570000       15.9994           0
      8253 MEMB     57       DOPC     C1       CTL2    -0.800000E-01   12.0110           0
      8254 MEMB     57       DOPC     HA       HAL2     0.900000E-01   1.00800           0
      8255 MEMB     57       DOPC     HB       HAL2     0.900000E-01   1.00800           0
      8256 MEMB     57       DOPC     C2       CTL1     0.170000       12.0110           0
      8257 MEMB     57       DOPC     HS       HAL1     0.900000E-01   1.00800           0
      8258 MEMB     57       DOPC     O21      OSL     -0.490000       15.9994           0
      8259 MEMB     57       DOPC     C21      CL       0.900000       12.0110           0
      8260 MEMB     57       DOPC     O22      OBL     -0.630000       15.9994           0
      8261 MEMB     57       DOPC     C22      CTL2    -0.220000       12.0110           0
      8262 MEMB     57       DOPC     H2R      HAL2     0.900000E-01   1.00800           0
      8263 MEMB     57       DOPC     H2S      HAL2     0.900000E-01   1.00800           0
      8264 MEMB     57       DOPC     C3       CTL2     0.800000E-01   12.0110           0
      8265 MEMB     57       DOPC     HX       HAL2     0.900000E-01   1.00800           0
      8266 MEMB     57       DOPC     HY       HAL2     0.900000E-01   1.00800           0
      8267 MEMB     57       DOPC     O31      OSL     -0.490000       15.9994           0
      8268 MEMB     57       DOPC     C31      CL       0.900000       12.0110           0
      8269 MEMB     57       DOPC     O32      OBL     -0.630000       15.9994           0
      8270 MEMB     57       DOPC     C32      CTL2    -0.220000       12.0110           0
      8271 MEMB     57       DOPC     H2X      HAL2     0.900000E-01   1.00800           0
      8272 MEMB     57       DOPC     H2Y      HAL2     0.900000E-01   1.00800           0
      8273 MEMB     57       DOPC     C23      CTL2    -0.180000       12.0110           0
      8274 MEMB     57       DOPC     H3R      HAL2     0.900000E-01   1.00800           0
      8275 MEMB     57       DOPC     H3S      HAL2     0.900000E-01   1.00800           0
      8276 MEMB     57       DOPC     C24      CTL2    -0.180000       12.0110           0
      8277 MEMB     57       DOPC     H4R      HAL2     0.900000E-01   1.00800           0
      8278 MEMB     57       DOPC     H4S      HAL2     0.900000E-01   1.00800           0
      8279 MEMB     57       DOPC     C25      CTL2    -0.180000       12.0110           0
      8280 MEMB     57       DOPC     H5R      HAL2     0.900000E-01   1.00800           0
      8281 MEMB     57       DOPC     H5S      HAL2     0.900000E-01   1.00800           0
      8282 MEMB     57       DOPC     C26      CTL2    -0.180000       12.0110           0
      8283 MEMB     57       DOPC     H6R      HAL2     0.900000E-01   1.00800           0
      8284 MEMB     57       DOPC     H6S      HAL2     0.900000E-01   1.00800           0
      8285 MEMB     57       DOPC     C27      CTL2    -0.180000       12.0110           0
      8286 MEMB     57       DOPC     H7R      HAL2     0.900000E-01   1.00800           0
      8287 MEMB     57       DOPC     H7S      HAL2     0.900000E-01   1.00800           0
      8288 MEMB     57       DOPC     C28      CTL2    -0.180000       12.0110           0
      8289 MEMB     57       DOPC     H8R      HAL2     0.900000E-01   1.00800           0
      8290 MEMB     57       DOPC     H8S      HAL2     0.900000E-01   1.00800           0
      8291 MEMB     57       DOPC     C29      CEL1    -0.150000       12.0110           0
      8292 MEMB     57       DOPC     H9R      HEL1     0.150000       1.00800           0
      8293 MEMB     57       DOPC     C210     CEL1    -0.150000       12.0110           0
      8294 MEMB     57       DOPC     H10R     HEL1     0.150000       1.00800           0
      8295 MEMB     57       DOPC     C211     CTL2    -0.180000       12.0110           0
      8296 MEMB     57       DOPC     H11R     HAL2     0.900000E-01   1.00800           0
      8297 MEMB     57       DOPC     H11S     HAL2     0.900000E-01   1.00800           0
      8298 MEMB     57       DOPC     C212     CTL2    -0.180000       12.0110           0
      8299 MEMB     57       DOPC     H12R     HAL2     0.900000E-01   1.00800           0
      8300 MEMB     57       DOPC     H12S     HAL2     0.900000E-01   1.00800           0
      8301 MEMB     57       DOPC     C213     CTL2    -0.180000       12.0110           0
      8302 MEMB     57       DOPC     H13R     HAL2     0.900000E-01   1.00800           0
      8303 MEMB     57       DOPC     H13S     HAL2     0.900000E-01   1.00800           0
      8304 MEMB     57       DOPC     C214     CTL2    -0.180000       12.0110           0
      8305 MEMB     57       DOPC     H14R     HAL2     0.900000E-01   1.00800           0
      8306 MEMB     57       DOPC     H14S     HAL2     0.900000E-01   1.00800           0
      8307 MEMB     57       DOPC     C215     CTL2    -0.180000       12.0110           0
      8308 MEMB     57       DOPC     H15R     HAL2     0.900000E-01   1.00800           0
      8309 MEMB     57       DOPC     H15S     HAL2     0.900000E-01   1.00800           0
      8310 MEMB     57       DOPC     C216     CTL2    -0.180000       12.0110           0
      8311 MEMB     57       DOPC     H16R     HAL2     0.900000E-01   1.00800           0
      8312 MEMB     57       DOPC     H16S     HAL2     0.900000E-01   1.00800           0
      8313 MEMB     57       DOPC     C217     CTL2    -0.180000       12.0110           0
      8314 MEMB     57       DOPC     H17R     HAL2     0.900000E-01   1.00800           0
      8315 MEMB     57       DOPC     H17S     HAL2     0.900000E-01   1.00800           0
      8316 MEMB     57       DOPC     C218     CTL3    -0.270000       12.0110           0
      8317 MEMB     57       DOPC     H18R     HAL3     0.900000E-01   1.00800           0
      8318 MEMB     57       DOPC     H18S     HAL3     0.900000E-01   1.00800           0
      8319 MEMB     57       DOPC     H18T     HAL3     0.900000E-01   1.00800           0
      8320 MEMB     57       DOPC     C33      CTL2    -0.180000       12.0110           0
      8321 MEMB     57       DOPC     H3X      HAL2     0.900000E-01   1.00800           0
      8322 MEMB     57       DOPC     H3Y      HAL2     0.900000E-01   1.00800           0
      8323 MEMB     57       DOPC     C34      CTL2    -0.180000       12.0110           0
      8324 MEMB     57       DOPC     H4X      HAL2     0.900000E-01   1.00800           0
      8325 MEMB     57       DOPC     H4Y      HAL2     0.900000E-01   1.00800           0
      8326 MEMB     57       DOPC     C35      CTL2    -0.180000       12.0110           0
      8327 MEMB     57       DOPC     H5X      HAL2     0.900000E-01   1.00800           0
      8328 MEMB     57       DOPC     H5Y      HAL2     0.900000E-01   1.00800           0
      8329 MEMB     57       DOPC     C36      CTL2    -0.180000       12.0110           0
      8330 MEMB     57       DOPC     H6X      HAL2     0.900000E-01   1.00800           0
      8331 MEMB     57       DOPC     H6Y      HAL2     0.900000E-01   1.00800           0
      8332 MEMB     57       DOPC     C37      CTL2    -0.180000       12.0110           0
      8333 MEMB     57       DOPC     H7X      HAL2     0.900000E-01   1.00800           0
      8334 MEMB     57       DOPC     H7Y      HAL2     0.900000E-01   1.00800           0
      8335 MEMB     57       DOPC     C38      CTL2    -0.180000       12.0110           0
      8336 MEMB     57       DOPC     H8X      HAL2     0.900000E-01   1.00800           0
      8337 MEMB     57       DOPC     H8Y      HAL2     0.900000E-01   1.00800           0
      8338 MEMB     57       DOPC     C39      CEL1    -0.150000       12.0110           0
      8339 MEMB     57       DOPC     H9X      HEL1     0.150000       1.00800           0
      8340 MEMB     57       DOPC     C310     CEL1    -0.150000       12.0110           0
      8341 MEMB     57       DOPC     H10X     HEL1     0.150000       1.00800           0
      8342 MEMB     57       DOPC     C311     CTL2    -0.180000       12.0110           0
      8343 MEMB     57       DOPC     H11X     HAL2     0.900000E-01   1.00800           0
      8344 MEMB     57       DOPC     H11Y     HAL2     0.900000E-01   1.00800           0
      8345 MEMB     57       DOPC     C312     CTL2    -0.180000       12.0110           0
      8346 MEMB     57       DOPC     H12X     HAL2     0.900000E-01   1.00800           0
      8347 MEMB     57       DOPC     H12Y     HAL2     0.900000E-01   1.00800           0
      8348 MEMB     57       DOPC     C313     CTL2    -0.180000       12.0110           0
      8349 MEMB     57       DOPC     H13X     HAL2     0.900000E-01   1.00800           0
      8350 MEMB     57       DOPC     H13Y     HAL2     0.900000E-01   1.00800           0
      8351 MEMB     57       DOPC     C314     CTL2    -0.180000       12.0110           0
      8352 MEMB     57       DOPC     H14X     HAL2     0.900000E-01   1.00800           0
      8353 MEMB     57       DOPC     H14Y     HAL2     0.900000E-01   1.00800           0
      8354 MEMB     57       DOPC     C315     CTL2    -0.180000       12.0110           0
      8355 MEMB     57       DOPC     H15X     HAL2     0.900000E-01   1.00800           0
      8356 MEMB     57       DOPC     H15Y     HAL2     0.900000E-01   1.00800           0
      8357 MEMB     57       DOPC     C316     CTL2    -0.180000       12.0110           0
      8358 MEMB     57       DOPC     H16X     HAL2     0.900000E-01   1.00800           0
      8359 MEMB     57       DOPC     H16Y     HAL2     0.900000E-01   1.00800           0
      8360 MEMB     57       DOPC     C317     CTL2    -0.180000       12.0110           0
      8361 MEMB     57       DOPC     H17X     HAL2     0.900000E-01   1.00800           0
      8362 MEMB     57       DOPC     H17Y     HAL2     0.900000E-01   1.00800           0
      8363 MEMB     57       DOPC     C318     CTL3    -0.270000       12.0110           0
      8364 MEMB     57       DOPC     H18X     HAL3     0.900000E-01   1.00800           0
      8365 MEMB     57       DOPC     H18Y     HAL3     0.900000E-01   1.00800           0
      8366 MEMB     57       DOPC     H18Z     HAL3     0.900000E-01   1.00800           0
      8367 MEMB     58       DOPC     N        NTL     -0.600000       14.0070           0
      8368 MEMB     58       DOPC     C12      CTL2    -0.100000       12.0110           0
      8369 MEMB     58       DOPC     H12A     HL       0.250000       1.00800           0
      8370 MEMB     58       DOPC     H12B     HL       0.250000       1.00800           0
      8371 MEMB     58       DOPC     C13      CTL5    -0.350000       12.0110           0
      8372 MEMB     58       DOPC     H13A     HL       0.250000       1.00800           0
      8373 MEMB     58       DOPC     H13B     HL       0.250000       1.00800           0
      8374 MEMB     58       DOPC     H13C     HL       0.250000       1.00800           0
      8375 MEMB     58       DOPC     C14      CTL5    -0.350000       12.0110           0
      8376 MEMB     58       DOPC     H14A     HL       0.250000       1.00800           0
      8377 MEMB     58       DOPC     H14B     HL       0.250000       1.00800           0
      8378 MEMB     58       DOPC     H14C     HL       0.250000       1.00800           0
      8379 MEMB     58       DOPC     C15      CTL5    -0.350000       12.0110           0
      8380 MEMB     58       DOPC     H15A     HL       0.250000       1.00800           0
      8381 MEMB     58       DOPC     H15B     HL       0.250000       1.00800           0
      8382 MEMB     58       DOPC     H15C     HL       0.250000       1.00800           0
      8383 MEMB     58       DOPC     C11      CTL2    -0.800000E-01   12.0110           0
      8384 MEMB     58       DOPC     H11A     HAL2     0.900000E-01   1.00800           0
      8385 MEMB     58       DOPC     H11B     HAL2     0.900000E-01   1.00800           0
      8386 MEMB     58       DOPC     P        PL        1.50000       30.9740           0
      8387 MEMB     58       DOPC     O13      O2L     -0.780000       15.9994           0
      8388 MEMB     58       DOPC     O14      O2L     -0.780000       15.9994           0
      8389 MEMB     58       DOPC     O12      OSLP    -0.570000       15.9994           0
      8390 MEMB     58       DOPC     O11      OSLP    -0.570000       15.9994           0
      8391 MEMB     58       DOPC     C1       CTL2    -0.800000E-01   12.0110           0
      8392 MEMB     58       DOPC     HA       HAL2     0.900000E-01   1.00800           0
      8393 MEMB     58       DOPC     HB       HAL2     0.900000E-01   1.00800           0
      8394 MEMB     58       DOPC     C2       CTL1     0.170000       12.0110           0
      8395 MEMB     58       DOPC     HS       HAL1     0.900000E-01   1.00800           0
      8396 MEMB     58       DOPC     O21      OSL     -0.490000       15.9994           0
      8397 MEMB     58       DOPC     C21      CL       0.900000       12.0110           0
      8398 MEMB     58       DOPC     O22      OBL     -0.630000       15.9994           0
      8399 MEMB     58       DOPC     C22      CTL2    -0.220000       12.0110           0
      8400 MEMB     58       DOPC     H2R      HAL2     0.900000E-01   1.00800           0
      8401 MEMB     58       DOPC     H2S      HAL2     0.900000E-01   1.00800           0
      8402 MEMB     58       DOPC     C3       CTL2     0.800000E-01   12.0110           0
      8403 MEMB     58       DOPC     HX       HAL2     0.900000E-01   1.00800           0
      8404 MEMB     58       DOPC     HY       HAL2     0.900000E-01   1.00800           0
      8405 MEMB     58       DOPC     O31      OSL     -0.490000       15.9994           0
      8406 MEMB     58       DOPC     C31      CL       0.900000       12.0110           0
      8407 MEMB     58       DOPC     O32      OBL     -0.630000       15.9994           0
      8408 MEMB     58       DOPC     C32      CTL2    -0.220000       12.0110           0
      8409 MEMB     58       DOPC     H2X      HAL2     0.900000E-01   1.00800           0
      8410 MEMB     58       DOPC     H2Y      HAL2     0.900000E-01   1.00800           0
      8411 MEMB     58       DOPC     C23      CTL2    -0.180000       12.0110           0
      8412 MEMB     58       DOPC     H3R      HAL2     0.900000E-01   1.00800           0
      8413 MEMB     58       DOPC     H3S      HAL2     0.900000E-01   1.00800           0
      8414 MEMB     58       DOPC     C24      CTL2    -0.180000       12.0110           0
      8415 MEMB     58       DOPC     H4R      HAL2     0.900000E-01   1.00800           0
      8416 MEMB     58       DOPC     H4S      HAL2     0.900000E-01   1.00800           0
      8417 MEMB     58       DOPC     C25      CTL2    -0.180000       12.0110           0
      8418 MEMB     58       DOPC     H5R      HAL2     0.900000E-01   1.00800           0
      8419 MEMB     58       DOPC     H5S      HAL2     0.900000E-01   1.00800           0
      8420 MEMB     58       DOPC     C26      CTL2    -0.180000       12.0110           0
      8421 MEMB     58       DOPC     H6R      HAL2     0.900000E-01   1.00800           0
      8422 MEMB     58       DOPC     H6S      HAL2     0.900000E-01   1.00800           0
      8423 MEMB     58       DOPC     C27      CTL2    -0.180000       12.0110           0
      8424 MEMB     58       DOPC     H7R      HAL2     0.900000E-01   1.00800           0
      8425 MEMB     58       DOPC     H7S      HAL2     0.900000E-01   1.00800           0
      8426 MEMB     58       DOPC     C28      CTL2    -0.180000       12.0110           0
      8427 MEMB     58       DOPC     H8R      HAL2     0.900000E-01   1.00800           0
      8428 MEMB     58       DOPC     H8S      HAL2     0.900000E-01   1.00800           0
      8429 MEMB     58       DOPC     C29      CEL1    -0.150000       12.0110           0
      8430 MEMB     58       DOPC     H9R      HEL1     0.150000       1.00800           0
      8431 MEMB     58       DOPC     C210     CEL1    -0.150000       12.0110           0
      8432 MEMB     58       DOPC     H10R     HEL1     0.150000       1.00800           0
      8433 MEMB     58       DOPC     C211     CTL2    -0.180000       12.0110           0
      8434 MEMB     58       DOPC     H11R     HAL2     0.900000E-01   1.00800           0
      8435 MEMB     58       DOPC     H11S     HAL2     0.900000E-01   1.00800           0
      8436 MEMB     58       DOPC     C212     CTL2    -0.180000       12.0110           0
      8437 MEMB     58       DOPC     H12R     HAL2     0.900000E-01   1.00800           0
      8438 MEMB     58       DOPC     H12S     HAL2     0.900000E-01   1.00800           0
      8439 MEMB     58       DOPC     C213     CTL2    -0.180000       12.0110           0
      8440 MEMB     58       DOPC     H13R     HAL2     0.900000E-01   1.00800           0
      8441 MEMB     58       DOPC     H13S     HAL2     0.900000E-01   1.00800           0
      8442 MEMB     58       DOPC     C214     CTL2    -0.180000       12.0110           0
      8443 MEMB     58       DOPC     H14R     HAL2     0.900000E-01   1.00800           0
      8444 MEMB     58       DOPC     H14S     HAL2     0.900000E-01   1.00800           0
      8445 MEMB     58       DOPC     C215     CTL2    -0.180000       12.0110           0
      8446 MEMB     58       DOPC     H15R     HAL2     0.900000E-01   1.00800           0
      8447 MEMB     58       DOPC     H15S     HAL2     0.900000E-01   1.00800           0
      8448 MEMB     58       DOPC     C216     CTL2    -0.180000       12.0110           0
      8449 MEMB     58       DOPC     H16R     HAL2     0.900000E-01   1.00800           0
      8450 MEMB     58       DOPC     H16S     HAL2     0.900000E-01   1.00800           0
      8451 MEMB     58       DOPC     C217     CTL2    -0.180000       12.0110           0
      8452 MEMB     58       DOPC     H17R     HAL2     0.900000E-01   1.00800           0
      8453 MEMB     58       DOPC     H17S     HAL2     0.900000E-01   1.00800           0
      8454 MEMB     58       DOPC     C218     CTL3    -0.270000       12.0110           0
      8455 MEMB     58       DOPC     H18R     HAL3     0.900000E-01   1.00800           0
      8456 MEMB     58       DOPC     H18S     HAL3     0.900000E-01   1.00800           0
      8457 MEMB     58       DOPC     H18T     HAL3     0.900000E-01   1.00800           0
      8458 MEMB     58       DOPC     C33      CTL2    -0.180000       12.0110           0
      8459 MEMB     58       DOPC     H3X      HAL2     0.900000E-01   1.00800           0
      8460 MEMB     58       DOPC     H3Y      HAL2     0.900000E-01   1.00800           0
      8461 MEMB     58       DOPC     C34      CTL2    -0.180000       12.0110           0
      8462 MEMB     58       DOPC     H4X      HAL2     0.900000E-01   1.00800           0
      8463 MEMB     58       DOPC     H4Y      HAL2     0.900000E-01   1.00800           0
      8464 MEMB     58       DOPC     C35      CTL2    -0.180000       12.0110           0
      8465 MEMB     58       DOPC     H5X      HAL2     0.900000E-01   1.00800           0
      8466 MEMB     58       DOPC     H5Y      HAL2     0.900000E-01   1.00800           0
      8467 MEMB     58       DOPC     C36      CTL2    -0.180000       12.0110           0
      8468 MEMB     58       DOPC     H6X      HAL2     0.900000E-01   1.00800           0
      8469 MEMB     58       DOPC     H6Y      HAL2     0.900000E-01   1.00800           0
      8470 MEMB     58       DOPC     C37      CTL2    -0.180000       12.0110           0
      8471 MEMB     58       DOPC     H7X      HAL2     0.900000E-01   1.00800           0
      8472 MEMB     58       DOPC     H7Y      HAL2     0.900000E-01   1.00800           0
      8473 MEMB     58       DOPC     C38      CTL2    -0.180000       12.0110           0
      8474 MEMB     58       DOPC     H8X      HAL2     0.900000E-01   1.00800           0
      8475 MEMB     58       DOPC     H8Y      HAL2     0.900000E-01   1.00800           0
      8476 MEMB     58       DOPC     C39      CEL1    -0.150000       12.0110           0
      8477 MEMB     58       DOPC     H9X      HEL1     0.150000       1.00800           0
      8478 MEMB     58       DOPC     C310     CEL1    -0.150000       12.0110           0
      8479 MEMB     58       DOPC     H10X     HEL1     0.150000       1.00800           0
      8480 MEMB     58       DOPC     C311     CTL2    -0.180000       12.0110           0
      8481 MEMB     58       DOPC     H11X     HAL2     0.900000E-01   1.00800           0
      8482 MEMB     58       DOPC     H11Y     HAL2     0.900000E-01   1.00800           0
      8483 MEMB     58       DOPC     C312     CTL2    -0.180000       12.0110           0
      8484 MEMB     58       DOPC     H12X     HAL2     0.900000E-01   1.00800           0
      8485 MEMB     58       DOPC     H12Y     HAL2     0.900000E-01   1.00800           0
      8486 MEMB     58       DOPC     C313     CTL2    -0.180000       12.0110           0
      8487 MEMB     58       DOPC     H13X     HAL2     0.900000E-01   1.00800           0
      8488 MEMB     58       DOPC     H13Y     HAL2     0.900000E-01   1.00800           0
      8489 MEMB     58       DOPC     C314     CTL2    -0.180000       12.0110           0
      8490 MEMB     58       DOPC     H14X     HAL2     0.900000E-01   1.00800           0
      8491 MEMB     58       DOPC     H14Y     HAL2     0.900000E-01   1.00800           0
      8492 MEMB     58       DOPC     C315     CTL2    -0.180000       12.0110           0
      8493 MEMB     58       DOPC     H15X     HAL2     0.900000E-01   1.00800           0
      8494 MEMB     58       DOPC     H15Y     HAL2     0.900000E-01   1.00800           0
      8495 MEMB     58       DOPC     C316     CTL2    -0.180000       12.0110           0
      8496 MEMB     58       DOPC     H16X     HAL2     0.900000E-01   1.00800           0
      8497 MEMB     58       DOPC     H16Y     HAL2     0.900000E-01   1.00800           0
      8498 MEMB     58       DOPC     C317     CTL2    -0.180000       12.0110           0
      8499 MEMB     58       DOPC     H17X     HAL2     0.900000E-01   1.00800           0
      8500 MEMB     58       DOPC     H17Y     HAL2     0.900000E-01   1.00800           0
      8501 MEMB     58       DOPC     C318     CTL3    -0.270000       12.0110           0
      8502 MEMB     58       DOPC     H18X     HAL3     0.900000E-01   1.00800           0
      8503 MEMB     58       DOPC     H18Y     HAL3     0.900000E-01   1.00800           0
      8504 MEMB     58       DOPC     H18Z     HAL3     0.900000E-01   1.00800           0
      8505 MEMB     59       DOPC     N        NTL     -0.600000       14.0070           0
      8506 MEMB     59       DOPC     C12      CTL2    -0.100000       12.0110           0
      8507 MEMB     59       DOPC     H12A     HL       0.250000       1.00800           0
      8508 MEMB     59       DOPC     H12B     HL       0.250000       1.00800           0
      8509 MEMB     59       DOPC     C13      CTL5    -0.350000       12.0110           0
      8510 MEMB     59       DOPC     H13A     HL       0.250000       1.00800           0
      8511 MEMB     59       DOPC     H13B     HL       0.250000       1.00800           0
      8512 MEMB     59       DOPC     H13C     HL       0.250000       1.00800           0
      8513 MEMB     59       DOPC     C14      CTL5    -0.350000       12.0110           0
      8514 MEMB     59       DOPC     H14A     HL       0.250000       1.00800           0
      8515 MEMB     59       DOPC     H14B     HL       0.250000       1.00800           0
      8516 MEMB     59       DOPC     H14C     HL       0.250000       1.00800           0
      8517 MEMB     59       DOPC     C15      CTL5    -0.350000       12.0110           0
      8518 MEMB     59       DOPC     H15A     HL       0.250000       1.00800           0
      8519 MEMB     59       DOPC     H15B     HL       0.250000       1.00800           0
      8520 MEMB     59       DOPC     H15C     HL       0.250000       1.00800           0
      8521 MEMB     59       DOPC     C11      CTL2    -0.800000E-01   12.0110           0
      8522 MEMB     59       DOPC     H11A     HAL2     0.900000E-01   1.00800           0
      8523 MEMB     59       DOPC     H11B     HAL2     0.900000E-01   1.00800           0
      8524 MEMB     59       DOPC     P        PL        1.50000       30.9740           0
      8525 MEMB     59       DOPC     O13      O2L     -0.780000       15.9994           0
      8526 MEMB     59       DOPC     O14      O2L     -0.780000       15.9994           0
      8527 MEMB     59       DOPC     O12      OSLP    -0.570000       15.9994           0
      8528 MEMB     59       DOPC     O11      OSLP    -0.570000       15.9994           0
      8529 MEMB     59       DOPC     C1       CTL2    -0.800000E-01   12.0110           0
      8530 MEMB     59       DOPC     HA       HAL2     0.900000E-01   1.00800           0
      8531 MEMB     59       DOPC     HB       HAL2     0.900000E-01   1.00800           0
      8532 MEMB     59       DOPC     C2       CTL1     0.170000       12.0110           0
      8533 MEMB     59       DOPC     HS       HAL1     0.900000E-01   1.00800           0
      8534 MEMB     59       DOPC     O21      OSL     -0.490000       15.9994           0
      8535 MEMB     59       DOPC     C21      CL       0.900000       12.0110           0
      8536 MEMB     59       DOPC     O22      OBL     -0.630000       15.9994           0
      8537 MEMB     59       DOPC     C22      CTL2    -0.220000       12.0110           0
      8538 MEMB     59       DOPC     H2R      HAL2     0.900000E-01   1.00800           0
      8539 MEMB     59       DOPC     H2S      HAL2     0.900000E-01   1.00800           0
      8540 MEMB     59       DOPC     C3       CTL2     0.800000E-01   12.0110           0
      8541 MEMB     59       DOPC     HX       HAL2     0.900000E-01   1.00800           0
      8542 MEMB     59       DOPC     HY       HAL2     0.900000E-01   1.00800           0
      8543 MEMB     59       DOPC     O31      OSL     -0.490000       15.9994           0
      8544 MEMB     59       DOPC     C31      CL       0.900000       12.0110           0
      8545 MEMB     59       DOPC     O32      OBL     -0.630000       15.9994           0
      8546 MEMB     59       DOPC     C32      CTL2    -0.220000       12.0110           0
      8547 MEMB     59       DOPC     H2X      HAL2     0.900000E-01   1.00800           0
      8548 MEMB     59       DOPC     H2Y      HAL2     0.900000E-01   1.00800           0
      8549 MEMB     59       DOPC     C23      CTL2    -0.180000       12.0110           0
      8550 MEMB     59       DOPC     H3R      HAL2     0.900000E-01   1.00800           0
      8551 MEMB     59       DOPC     H3S      HAL2     0.900000E-01   1.00800           0
      8552 MEMB     59       DOPC     C24      CTL2    -0.180000       12.0110           0
      8553 MEMB     59       DOPC     H4R      HAL2     0.900000E-01   1.00800           0
      8554 MEMB     59       DOPC     H4S      HAL2     0.900000E-01   1.00800           0
      8555 MEMB     59       DOPC     C25      CTL2    -0.180000       12.0110           0
      8556 MEMB     59       DOPC     H5R      HAL2     0.900000E-01   1.00800           0
      8557 MEMB     59       DOPC     H5S      HAL2     0.900000E-01   1.00800           0
      8558 MEMB     59       DOPC     C26      CTL2    -0.180000       12.0110           0
      8559 MEMB     59       DOPC     H6R      HAL2     0.900000E-01   1.00800           0
      8560 MEMB     59       DOPC     H6S      HAL2     0.900000E-01   1.00800           0
      8561 MEMB     59       DOPC     C27      CTL2    -0.180000       12.0110           0
      8562 MEMB     59       DOPC     H7R      HAL2     0.900000E-01   1.00800           0
      8563 MEMB     59       DOPC     H7S      HAL2     0.900000E-01   1.00800           0
      8564 MEMB     59       DOPC     C28      CTL2    -0.180000       12.0110           0
      8565 MEMB     59       DOPC     H8R      HAL2     0.900000E-01   1.00800           0
      8566 MEMB     59       DOPC     H8S      HAL2     0.900000E-01   1.00800           0
      8567 MEMB     59       DOPC     C29      CEL1    -0.150000       12.0110           0
      8568 MEMB     59       DOPC     H9R      HEL1     0.150000       1.00800           0
      8569 MEMB     59       DOPC     C210     CEL1    -0.150000       12.0110           0
      8570 MEMB     59       DOPC     H10R     HEL1     0.150000       1.00800           0
      8571 MEMB     59       DOPC     C211     CTL2    -0.180000       12.0110           0
      8572 MEMB     59       DOPC     H11R     HAL2     0.900000E-01   1.00800           0
      8573 MEMB     59       DOPC     H11S     HAL2     0.900000E-01   1.00800           0
      8574 MEMB     59       DOPC     C212     CTL2    -0.180000       12.0110           0
      8575 MEMB     59       DOPC     H12R     HAL2     0.900000E-01   1.00800           0
      8576 MEMB     59       DOPC     H12S     HAL2     0.900000E-01   1.00800           0
      8577 MEMB     59       DOPC     C213     CTL2    -0.180000       12.0110           0
      8578 MEMB     59       DOPC     H13R     HAL2     0.900000E-01   1.00800           0
      8579 MEMB     59       DOPC     H13S     HAL2     0.900000E-01   1.00800           0
      8580 MEMB     59       DOPC     C214     CTL2    -0.180000       12.0110           0
      8581 MEMB     59       DOPC     H14R     HAL2     0.900000E-01   1.00800           0
      8582 MEMB     59       DOPC     H14S     HAL2     0.900000E-01   1.00800           0
      8583 MEMB     59       DOPC     C215     CTL2    -0.180000       12.0110           0
      8584 MEMB     59       DOPC     H15R     HAL2     0.900000E-01   1.00800           0
      8585 MEMB     59       DOPC     H15S     HAL2     0.900000E-01   1.00800           0
      8586 MEMB     59       DOPC     C216     CTL2    -0.180000       12.0110           0
      8587 MEMB     59       DOPC     H16R     HAL2     0.900000E-01   1.00800           0
      8588 MEMB     59       DOPC     H16S     HAL2     0.900000E-01   1.00800           0
      8589 MEMB     59       DOPC     C217     CTL2    -0.180000       12.0110           0
      8590 MEMB     59       DOPC     H17R     HAL2     0.900000E-01   1.00800           0
      8591 MEMB     59       DOPC     H17S     HAL2     0.900000E-01   1.00800           0
      8592 MEMB     59       DOPC     C218     CTL3    -0.270000       12.0110           0
      8593 MEMB     59       DOPC     H18R     HAL3     0.900000E-01   1.00800           0
      8594 MEMB     59       DOPC     H18S     HAL3     0.900000E-01   1.00800           0
      8595 MEMB     59       DOPC     H18T     HAL3     0.900000E-01   1.00800           0
      8596 MEMB     59       DOPC     C33      CTL2    -0.180000       12.0110           0
      8597 MEMB     59       DOPC     H3X      HAL2     0.900000E-01   1.00800           0
      8598 MEMB     59       DOPC     H3Y      HAL2     0.900000E-01   1.00800           0
      8599 MEMB     59       DOPC     C34      CTL2    -0.180000       12.0110           0
      8600 MEMB     59       DOPC     H4X      HAL2     0.900000E-01   1.00800           0
      8601 MEMB     59       DOPC     H4Y      HAL2     0.900000E-01   1.00800           0
      8602 MEMB     59       DOPC     C35      CTL2    -0.180000       12.0110           0
      8603 MEMB     59       DOPC     H5X      HAL2     0.900000E-01   1.00800           0
      8604 MEMB     59       DOPC     H5Y      HAL2     0.900000E-01   1.00800           0
      8605 MEMB     59       DOPC     C36      CTL2    -0.180000       12.0110           0
      8606 MEMB     59       DOPC     H6X      HAL2     0.900000E-01   1.00800           0
      8607 MEMB     59       DOPC     H6Y      HAL2     0.900000E-01   1.00800           0
      8608 MEMB     59       DOPC     C37      CTL2    -0.180000       12.0110           0
      8609 MEMB     59       DOPC     H7X      HAL2     0.900000E-01   1.00800           0
      8610 MEMB     59       DOPC     H7Y      HAL2     0.900000E-01   1.00800           0
      8611 MEMB     59       DOPC     C38      CTL2    -0.180000       12.0110           0
      8612 MEMB     59       DOPC     H8X      HAL2     0.900000E-01   1.00800           0
      8613 MEMB     59       DOPC     H8Y      HAL2     0.900000E-01   1.00800           0
      8614 MEMB     59       DOPC     C39      CEL1    -0.150000       12.0110           0
      8615 MEMB     59       DOPC     H9X      HEL1     0.150000       1.00800           0
      8616 MEMB     59       DOPC     C310     CEL1    -0.150000       12.0110           0
      8617 MEMB     59       DOPC     H10X     HEL1     0.150000       1.00800           0
      8618 MEMB     59       DOPC     C311     CTL2    -0.180000       12.0110           0
      8619 MEMB     59       DOPC     H11X     HAL2     0.900000E-01   1.00800           0
      8620 MEMB     59       DOPC     H11Y     HAL2     0.900000E-01   1.00800           0
      8621 MEMB     59       DOPC     C312     CTL2    -0.180000       12.0110           0
      8622 MEMB     59       DOPC     H12X     HAL2     0.900000E-01   1.00800           0
      8623 MEMB     59       DOPC     H12Y     HAL2     0.900000E-01   1.00800           0
      8624 MEMB     59       DOPC     C313     CTL2    -0.180000       12.0110           0
      8625 MEMB     59       DOPC     H13X     HAL2     0.900000E-01   1.00800           0
      8626 MEMB     59       DOPC     H13Y     HAL2     0.900000E-01   1.00800           0
      8627 MEMB     59       DOPC     C314     CTL2    -0.180000       12.0110           0
      8628 MEMB     59       DOPC     H14X     HAL2     0.900000E-01   1.00800           0
      8629 MEMB     59       DOPC     H14Y     HAL2     0.900000E-01   1.00800           0
      8630 MEMB     59       DOPC     C315     CTL2    -0.180000       12.0110           0
      8631 MEMB     59       DOPC     H15X     HAL2     0.900000E-01   1.00800           0
      8632 MEMB     59       DOPC     H15Y     HAL2     0.900000E-01   1.00800           0
      8633 MEMB     59       DOPC     C316     CTL2    -0.180000       12.0110           0
      8634 MEMB     59       DOPC     H16X     HAL2     0.900000E-01   1.00800           0
      8635 MEMB     59       DOPC     H16Y     HAL2     0.900000E-01   1.00800           0
      8636 MEMB     59       DOPC     C317     CTL2    -0.180000       12.0110           0
      8637 MEMB     59       DOPC     H17X     HAL2     0.900000E-01   1.00800           0
      8638 MEMB     59       DOPC     H17Y     HAL2     0.900000E-01   1.00800           0
      8639 MEMB     59       DOPC     C318     CTL3    -0.270000       12.0110           0
      8640 MEMB     59       DOPC     H18X     HAL3     0.900000E-01   1.00800           0
      8641 MEMB     59       DOPC     H18Y     HAL3     0.900000E-01   1.00800           0
      8642 MEMB     59       DOPC     H18Z     HAL3     0.900000E-01   1.00800           0
      8643 MEMB     60       DOPC     N        NTL     -0.600000       14.0070           0
      8644 MEMB     60       DOPC     C12      CTL2    -0.100000       12.0110           0
      8645 MEMB     60       DOPC     H12A     HL       0.250000       1.00800           0
      8646 MEMB     60       DOPC     H12B     HL       0.250000       1.00800           0
      8647 MEMB     60       DOPC     C13      CTL5    -0.350000       12.0110           0
      8648 MEMB     60       DOPC     H13A     HL       0.250000       1.00800           0
      8649 MEMB     60       DOPC     H13B     HL       0.250000       1.00800           0
      8650 MEMB     60       DOPC     H13C     HL       0.250000       1.00800           0
      8651 MEMB     60       DOPC     C14      CTL5    -0.350000       12.0110           0
      8652 MEMB     60       DOPC     H14A     HL       0.250000       1.00800           0
      8653 MEMB     60       DOPC     H14B     HL       0.250000       1.00800           0
      8654 MEMB     60       DOPC     H14C     HL       0.250000       1.00800           0
      8655 MEMB     60       DOPC     C15      CTL5    -0.350000       12.0110           0
      8656 MEMB     60       DOPC     H15A     HL       0.250000       1.00800           0
      8657 MEMB     60       DOPC     H15B     HL       0.250000       1.00800           0
      8658 MEMB     60       DOPC     H15C     HL       0.250000       1.00800           0
      8659 MEMB     60       DOPC     C11      CTL2    -0.800000E-01   12.0110           0
      8660 MEMB     60       DOPC     H11A     HAL2     0.900000E-01   1.00800           0
      8661 MEMB     60       DOPC     H11B     HAL2     0.900000E-01   1.00800           0
      8662 MEMB     60       DOPC     P        PL        1.50000       30.9740           0
      8663 MEMB     60       DOPC     O13      O2L     -0.780000       15.9994           0
      8664 MEMB     60       DOPC     O14      O2L     -0.780000       15.9994           0
      8665 MEMB     60       DOPC     O12      OSLP    -0.570000       15.9994           0
      8666 MEMB     60       DOPC     O11      OSLP    -0.570000       15.9994           0
      8667 MEMB     60       DOPC     C1       CTL2    -0.800000E-01   12.0110           0
      8668 MEMB     60       DOPC     HA       HAL2     0.900000E-01   1.00800           0
      8669 MEMB     60       DOPC     HB       HAL2     0.900000E-01   1.00800           0
      8670 MEMB     60       DOPC     C2       CTL1     0.170000       12.0110           0
      8671 MEMB     60       DOPC     HS       HAL1     0.900000E-01   1.00800           0
      8672 MEMB     60       DOPC     O21      OSL     -0.490000       15.9994           0
      8673 MEMB     60       DOPC     C21      CL       0.900000       12.0110           0
      8674 MEMB     60       DOPC     O22      OBL     -0.630000       15.9994           0
      8675 MEMB     60       DOPC     C22      CTL2    -0.220000       12.0110           0
      8676 MEMB     60       DOPC     H2R      HAL2     0.900000E-01   1.00800           0
      8677 MEMB     60       DOPC     H2S      HAL2     0.900000E-01   1.00800           0
      8678 MEMB     60       DOPC     C3       CTL2     0.800000E-01   12.0110           0
      8679 MEMB     60       DOPC     HX       HAL2     0.900000E-01   1.00800           0
      8680 MEMB     60       DOPC     HY       HAL2     0.900000E-01   1.00800           0
      8681 MEMB     60       DOPC     O31      OSL     -0.490000       15.9994           0
      8682 MEMB     60       DOPC     C31      CL       0.900000       12.0110           0
      8683 MEMB     60       DOPC     O32      OBL     -0.630000       15.9994           0
      8684 MEMB     60       DOPC     C32      CTL2    -0.220000       12.0110           0
      8685 MEMB     60       DOPC     H2X      HAL2     0.900000E-01   1.00800           0
      8686 MEMB     60       DOPC     H2Y      HAL2     0.900000E-01   1.00800           0
      8687 MEMB     60       DOPC     C23      CTL2    -0.180000       12.0110           0
      8688 MEMB     60       DOPC     H3R      HAL2     0.900000E-01   1.00800           0
      8689 MEMB     60       DOPC     H3S      HAL2     0.900000E-01   1.00800           0
      8690 MEMB     60       DOPC     C24      CTL2    -0.180000       12.0110           0
      8691 MEMB     60       DOPC     H4R      HAL2     0.900000E-01   1.00800           0
      8692 MEMB     60       DOPC     H4S      HAL2     0.900000E-01   1.00800           0
      8693 MEMB     60       DOPC     C25      CTL2    -0.180000       12.0110           0
      8694 MEMB     60       DOPC     H5R      HAL2     0.900000E-01   1.00800           0
      8695 MEMB     60       DOPC     H5S      HAL2     0.900000E-01   1.00800           0
      8696 MEMB     60       DOPC     C26      CTL2    -0.180000       12.0110           0
      8697 MEMB     60       DOPC     H6R      HAL2     0.900000E-01   1.00800           0
      8698 MEMB     60       DOPC     H6S      HAL2     0.900000E-01   1.00800           0
      8699 MEMB     60       DOPC     C27      CTL2    -0.180000       12.0110           0
      8700 MEMB     60       DOPC     H7R      HAL2     0.900000E-01   1.00800           0
      8701 MEMB     60       DOPC     H7S      HAL2     0.900000E-01   1.00800           0
      8702 MEMB     60       DOPC     C28      CTL2    -0.180000       12.0110           0
      8703 MEMB     60       DOPC     H8R      HAL2     0.900000E-01   1.00800           0
      8704 MEMB     60       DOPC     H8S      HAL2     0.900000E-01   1.00800           0
      8705 MEMB     60       DOPC     C29      CEL1    -0.150000       12.0110           0
      8706 MEMB     60       DOPC     H9R      HEL1     0.150000       1.00800           0
      8707 MEMB     60       DOPC     C210     CEL1    -0.150000       12.0110           0
      8708 MEMB     60       DOPC     H10R     HEL1     0.150000       1.00800           0
      8709 MEMB     60       DOPC     C211     CTL2    -0.180000       12.0110           0
      8710 MEMB     60       DOPC     H11R     HAL2     0.900000E-01   1.00800           0
      8711 MEMB     60       DOPC     H11S     HAL2     0.900000E-01   1.00800           0
      8712 MEMB     60       DOPC     C212     CTL2    -0.180000       12.0110           0
      8713 MEMB     60       DOPC     H12R     HAL2     0.900000E-01   1.00800           0
      8714 MEMB     60       DOPC     H12S     HAL2     0.900000E-01   1.00800           0
      8715 MEMB     60       DOPC     C213     CTL2    -0.180000       12.0110           0
      8716 MEMB     60       DOPC     H13R     HAL2     0.900000E-01   1.00800           0
      8717 MEMB     60       DOPC     H13S     HAL2     0.900000E-01   1.00800           0
      8718 MEMB     60       DOPC     C214     CTL2    -0.180000       12.0110           0
      8719 MEMB     60       DOPC     H14R     HAL2     0.900000E-01   1.00800           0
      8720 MEMB     60       DOPC     H14S     HAL2     0.900000E-01   1.00800           0
      8721 MEMB     60       DOPC     C215     CTL2    -0.180000       12.0110           0
      8722 MEMB     60       DOPC     H15R     HAL2     0.900000E-01   1.00800           0
      8723 MEMB     60       DOPC     H15S     HAL2     0.900000E-01   1.00800           0
      8724 MEMB     60       DOPC     C216     CTL2    -0.180000       12.0110           0
      8725 MEMB     60       DOPC     H16R     HAL2     0.900000E-01   1.00800           0
      8726 MEMB     60       DOPC     H16S     HAL2     0.900000E-01   1.00800           0
      8727 MEMB     60       DOPC     C217     CTL2    -0.180000       12.0110           0
      8728 MEMB     60       DOPC     H17R     HAL2     0.900000E-01   1.00800           0
      8729 MEMB     60       DOPC     H17S     HAL2     0.900000E-01   1.00800           0
      8730 MEMB     60       DOPC     C218     CTL3    -0.270000       12.0110           0
      8731 MEMB     60       DOPC     H18R     HAL3     0.900000E-01   1.00800           0
      8732 MEMB     60       DOPC     H18S     HAL3     0.900000E-01   1.00800           0
      8733 MEMB     60       DOPC     H18T     HAL3     0.900000E-01   1.00800           0
      8734 MEMB     60       DOPC     C33      CTL2    -0.180000       12.0110           0
      8735 MEMB     60       DOPC     H3X      HAL2     0.900000E-01   1.00800           0
      8736 MEMB     60       DOPC     H3Y      HAL2     0.900000E-01   1.00800           0
      8737 MEMB     60       DOPC     C34      CTL2    -0.180000       12.0110           0
      8738 MEMB     60       DOPC     H4X      HAL2     0.900000E-01   1.00800           0
      8739 MEMB     60       DOPC     H4Y      HAL2     0.900000E-01   1.00800           0
      8740 MEMB     60       DOPC     C35      CTL2    -0.180000       12.0110           0
      8741 MEMB     60       DOPC     H5X      HAL2     0.900000E-01   1.00800           0
      8742 MEMB     60       DOPC     H5Y      HAL2     0.900000E-01   1.00800           0
      8743 MEMB     60       DOPC     C36      CTL2    -0.180000       12.0110           0
      8744 MEMB     60       DOPC     H6X      HAL2     0.900000E-01   1.00800           0
      8745 MEMB     60       DOPC     H6Y      HAL2     0.900000E-01   1.00800           0
      8746 MEMB     60       DOPC     C37      CTL2    -0.180000       12.0110           0
      8747 MEMB     60       DOPC     H7X      HAL2     0.900000E-01   1.00800           0
      8748 MEMB     60       DOPC     H7Y      HAL2     0.900000E-01   1.00800           0
      8749 MEMB     60       DOPC     C38      CTL2    -0.180000       12.0110           0
      8750 MEMB     60       DOPC     H8X      HAL2     0.900000E-01   1.00800           0
      8751 MEMB     60       DOPC     H8Y      HAL2     0.900000E-01   1.00800           0
      8752 MEMB     60       DOPC     C39      CEL1    -0.150000       12.0110           0
      8753 MEMB     60       DOPC     H9X      HEL1     0.150000       1.00800           0
      8754 MEMB     60       DOPC     C310     CEL1    -0.150000       12.0110           0
      8755 MEMB     60       DOPC     H10X     HEL1     0.150000       1.00800           0
      8756 MEMB     60       DOPC     C311     CTL2    -0.180000       12.0110           0
      8757 MEMB     60       DOPC     H11X     HAL2     0.900000E-01   1.00800           0
      8758 MEMB     60       DOPC     H11Y     HAL2     0.900000E-01   1.00800           0
      8759 MEMB     60       DOPC     C312     CTL2    -0.180000       12.0110           0
      8760 MEMB     60       DOPC     H12X     HAL2     0.900000E-01   1.00800           0
      8761 MEMB     60       DOPC     H12Y     HAL2     0.900000E-01   1.00800           0
      8762 MEMB     60       DOPC     C313     CTL2    -0.180000       12.0110           0
      8763 MEMB     60       DOPC     H13X     HAL2     0.900000E-01   1.00800           0
      8764 MEMB     60       DOPC     H13Y     HAL2     0.900000E-01   1.00800           0
      8765 MEMB     60       DOPC     C314     CTL2    -0.180000       12.0110           0
      8766 MEMB     60       DOPC     H14X     HAL2     0.900000E-01   1.00800           0
      8767 MEMB     60       DOPC     H14Y     HAL2     0.900000E-01   1.00800           0
      8768 MEMB     60       DOPC     C315     CTL2    -0.180000       12.0110           0
      8769 MEMB     60       DOPC     H15X     HAL2     0.900000E-01   1.00800           0
      8770 MEMB     60       DOPC     H15Y     HAL2     0.900000E-01   1.00800           0
      8771 MEMB     60       DOPC     C316     CTL2    -0.180000       12.0110           0
      8772 MEMB     60       DOPC     H16X     HAL2     0.900000E-01   1.00800           0
      8773 MEMB     60       DOPC     H16Y     HAL2     0.900000E-01   1.00800           0
      8774 MEMB     60       DOPC     C317     CTL2    -0.180000       12.0110           0
      8775 MEMB     60       DOPC     H17X     HAL2     0.900000E-01   1.00800           0
      8776 MEMB     60       DOPC     H17Y     HAL2     0.900000E-01   1.00800           0
      8777 MEMB     60       DOPC     C318     CTL3    -0.270000       12.0110           0
      8778 MEMB     60       DOPC     H18X     HAL3     0.900000E-01   1.00800           0
      8779 MEMB     60       DOPC     H18Y     HAL3     0.900000E-01   1.00800           0
      8780 MEMB     60       DOPC     H18Z     HAL3     0.900000E-01   1.00800           0
      8781 MEMB     61       DOPC     N        NTL     -0.600000       14.0070           0
      8782 MEMB     61       DOPC     C12      CTL2    -0.100000       12.0110           0
      8783 MEMB     61       DOPC     H12A     HL       0.250000       1.00800           0
      8784 MEMB     61       DOPC     H12B     HL       0.250000       1.00800           0
      8785 MEMB     61       DOPC     C13      CTL5    -0.350000       12.0110           0
      8786 MEMB     61       DOPC     H13A     HL       0.250000       1.00800           0
      8787 MEMB     61       DOPC     H13B     HL       0.250000       1.00800           0
      8788 MEMB     61       DOPC     H13C     HL       0.250000       1.00800           0
      8789 MEMB     61       DOPC     C14      CTL5    -0.350000       12.0110           0
      8790 MEMB     61       DOPC     H14A     HL       0.250000       1.00800           0
      8791 MEMB     61       DOPC     H14B     HL       0.250000       1.00800           0
      8792 MEMB     61       DOPC     H14C     HL       0.250000       1.00800           0
      8793 MEMB     61       DOPC     C15      CTL5    -0.350000       12.0110           0
      8794 MEMB     61       DOPC     H15A     HL       0.250000       1.00800           0
      8795 MEMB     61       DOPC     H15B     HL       0.250000       1.00800           0
      8796 MEMB     61       DOPC     H15C     HL       0.250000       1.00800           0
      8797 MEMB     61       DOPC     C11      CTL2    -0.800000E-01   12.0110           0
      8798 MEMB     61       DOPC     H11A     HAL2     0.900000E-01   1.00800           0
      8799 MEMB     61       DOPC     H11B     HAL2     0.900000E-01   1.00800           0
      8800 MEMB     61       DOPC     P        PL        1.50000       30.9740           0
      8801 MEMB     61       DOPC     O13      O2L     -0.780000       15.9994           0
      8802 MEMB     61       DOPC     O14      O2L     -0.780000       15.9994           0
      8803 MEMB     61       DOPC     O12      OSLP    -0.570000       15.9994           0
      8804 MEMB     61       DOPC     O11      OSLP    -0.570000       15.9994           0
      8805 MEMB     61       DOPC     C1       CTL2    -0.800000E-01   12.0110           0
      8806 MEMB     61       DOPC     HA       HAL2     0.900000E-01   1.00800           0
      8807 MEMB     61       DOPC     HB       HAL2     0.900000E-01   1.00800           0
      8808 MEMB     61       DOPC     C2       CTL1     0.170000       12.0110           0
      8809 MEMB     61       DOPC     HS       HAL1     0.900000E-01   1.00800           0
      8810 MEMB     61       DOPC     O21      OSL     -0.490000       15.9994           0
      8811 MEMB     61       DOPC     C21      CL       0.900000       12.0110           0
      8812 MEMB     61       DOPC     O22      OBL     -0.630000       15.9994           0
      8813 MEMB     61       DOPC     C22      CTL2    -0.220000       12.0110           0
      8814 MEMB     61       DOPC     H2R      HAL2     0.900000E-01   1.00800           0
      8815 MEMB     61       DOPC     H2S      HAL2     0.900000E-01   1.00800           0
      8816 MEMB     61       DOPC     C3       CTL2     0.800000E-01   12.0110           0
      8817 MEMB     61       DOPC     HX       HAL2     0.900000E-01   1.00800           0
      8818 MEMB     61       DOPC     HY       HAL2     0.900000E-01   1.00800           0
      8819 MEMB     61       DOPC     O31      OSL     -0.490000       15.9994           0
      8820 MEMB     61       DOPC     C31      CL       0.900000       12.0110           0
      8821 MEMB     61       DOPC     O32      OBL     -0.630000       15.9994           0
      8822 MEMB     61       DOPC     C32      CTL2    -0.220000       12.0110           0
      8823 MEMB     61       DOPC     H2X      HAL2     0.900000E-01   1.00800           0
      8824 MEMB     61       DOPC     H2Y      HAL2     0.900000E-01   1.00800           0
      8825 MEMB     61       DOPC     C23      CTL2    -0.180000       12.0110           0
      8826 MEMB     61       DOPC     H3R      HAL2     0.900000E-01   1.00800           0
      8827 MEMB     61       DOPC     H3S      HAL2     0.900000E-01   1.00800           0
      8828 MEMB     61       DOPC     C24      CTL2    -0.180000       12.0110           0
      8829 MEMB     61       DOPC     H4R      HAL2     0.900000E-01   1.00800           0
      8830 MEMB     61       DOPC     H4S      HAL2     0.900000E-01   1.00800           0
      8831 MEMB     61       DOPC     C25      CTL2    -0.180000       12.0110           0
      8832 MEMB     61       DOPC     H5R      HAL2     0.900000E-01   1.00800           0
      8833 MEMB     61       DOPC     H5S      HAL2     0.900000E-01   1.00800           0
      8834 MEMB     61       DOPC     C26      CTL2    -0.180000       12.0110           0
      8835 MEMB     61       DOPC     H6R      HAL2     0.900000E-01   1.00800           0
      8836 MEMB     61       DOPC     H6S      HAL2     0.900000E-01   1.00800           0
      8837 MEMB     61       DOPC     C27      CTL2    -0.180000       12.0110           0
      8838 MEMB     61       DOPC     H7R      HAL2     0.900000E-01   1.00800           0
      8839 MEMB     61       DOPC     H7S      HAL2     0.900000E-01   1.00800           0
      8840 MEMB     61       DOPC     C28      CTL2    -0.180000       12.0110           0
      8841 MEMB     61       DOPC     H8R      HAL2     0.900000E-01   1.00800           0
      8842 MEMB     61       DOPC     H8S      HAL2     0.900000E-01   1.00800           0
      8843 MEMB     61       DOPC     C29      CEL1    -0.150000       12.0110           0
      8844 MEMB     61       DOPC     H9R      HEL1     0.150000       1.00800           0
      8845 MEMB     61       DOPC     C210     CEL1    -0.150000       12.0110           0
      8846 MEMB     61       DOPC     H10R     HEL1     0.150000       1.00800           0
      8847 MEMB     61       DOPC     C211     CTL2    -0.180000       12.0110           0
      8848 MEMB     61       DOPC     H11R     HAL2     0.900000E-01   1.00800           0
      8849 MEMB     61       DOPC     H11S     HAL2     0.900000E-01   1.00800           0
      8850 MEMB     61       DOPC     C212     CTL2    -0.180000       12.0110           0
      8851 MEMB     61       DOPC     H12R     HAL2     0.900000E-01   1.00800           0
      8852 MEMB     61       DOPC     H12S     HAL2     0.900000E-01   1.00800           0
      8853 MEMB     61       DOPC     C213     CTL2    -0.180000       12.0110           0
      8854 MEMB     61       DOPC     H13R     HAL2     0.900000E-01   1.00800           0
      8855 MEMB     61       DOPC     H13S     HAL2     0.900000E-01   1.00800           0
      8856 MEMB     61       DOPC     C214     CTL2    -0.180000       12.0110           0
      8857 MEMB     61       DOPC     H14R     HAL2     0.900000E-01   1.00800           0
      8858 MEMB     61       DOPC     H14S     HAL2     0.900000E-01   1.00800           0
      8859 MEMB     61       DOPC     C215     CTL2    -0.180000       12.0110           0
      8860 MEMB     61       DOPC     H15R     HAL2     0.900000E-01   1.00800           0
      8861 MEMB     61       DOPC     H15S     HAL2     0.900000E-01   1.00800           0
      8862 MEMB     61       DOPC     C216     CTL2    -0.180000       12.0110           0
      8863 MEMB     61       DOPC     H16R     HAL2     0.900000E-01   1.00800           0
      8864 MEMB     61       DOPC     H16S     HAL2     0.900000E-01   1.00800           0
      8865 MEMB     61       DOPC     C217     CTL2    -0.180000       12.0110           0
      8866 MEMB     61       DOPC     H17R     HAL2     0.900000E-01   1.00800           0
      8867 MEMB     61       DOPC     H17S     HAL2     0.900000E-01   1.00800           0
      8868 MEMB     61       DOPC     C218     CTL3    -0.270000       12.0110           0
      8869 MEMB     61       DOPC     H18R     HAL3     0.900000E-01   1.00800           0
      8870 MEMB     61       DOPC     H18S     HAL3     0.900000E-01   1.00800           0
      8871 MEMB     61       DOPC     H18T     HAL3     0.900000E-01   1.00800           0
      8872 MEMB     61       DOPC     C33      CTL2    -0.180000       12.0110           0
      8873 MEMB     61       DOPC     H3X      HAL2     0.900000E-01   1.00800           0
      8874 MEMB     61       DOPC     H3Y      HAL2     0.900000E-01   1.00800           0
      8875 MEMB     61       DOPC     C34      CTL2    -0.180000       12.0110           0
      8876 MEMB     61       DOPC     H4X      HAL2     0.900000E-01   1.00800           0
      8877 MEMB     61       DOPC     H4Y      HAL2     0.900000E-01   1.00800           0
      8878 MEMB     61       DOPC     C35      CTL2    -0.180000       12.0110           0
      8879 MEMB     61       DOPC     H5X      HAL2     0.900000E-01   1.00800           0
      8880 MEMB     61       DOPC     H5Y      HAL2     0.900000E-01   1.00800           0
      8881 MEMB     61       DOPC     C36      CTL2    -0.180000       12.0110           0
      8882 MEMB     61       DOPC     H6X      HAL2     0.900000E-01   1.00800           0
      8883 MEMB     61       DOPC     H6Y      HAL2     0.900000E-01   1.00800           0
      8884 MEMB     61       DOPC     C37      CTL2    -0.180000       12.0110           0
      8885 MEMB     61       DOPC     H7X      HAL2     0.900000E-01   1.00800           0
      8886 MEMB     61       DOPC     H7Y      HAL2     0.900000E-01   1.00800           0
      8887 MEMB     61       DOPC     C38      CTL2    -0.180000       12.0110           0
      8888 MEMB     61       DOPC     H8X      HAL2     0.900000E-01   1.00800           0
      8889 MEMB     61       DOPC     H8Y      HAL2     0.900000E-01   1.00800           0
      8890 MEMB     61       DOPC     C39      CEL1    -0.150000       12.0110           0
      8891 MEMB     61       DOPC     H9X      HEL1     0.150000       1.00800           0
      8892 MEMB     61       DOPC     C310     CEL1    -0.150000       12.0110           0
      8893 MEMB     61       DOPC     H10X     HEL1     0.150000       1.00800           0
      8894 MEMB     61       DOPC     C311     CTL2    -0.180000       12.0110           0
      8895 MEMB     61       DOPC     H11X     HAL2     0.900000E-01   1.00800           0
      8896 MEMB     61       DOPC     H11Y     HAL2     0.900000E-01   1.00800           0
      8897 MEMB     61       DOPC     C312     CTL2    -0.180000       12.0110           0
      8898 MEMB     61       DOPC     H12X     HAL2     0.900000E-01   1.00800           0
      8899 MEMB     61       DOPC     H12Y     HAL2     0.900000E-01   1.00800           0
      8900 MEMB     61       DOPC     C313     CTL2    -0.180000       12.0110           0
      8901 MEMB     61       DOPC     H13X     HAL2     0.900000E-01   1.00800           0
      8902 MEMB     61       DOPC     H13Y     HAL2     0.900000E-01   1.00800           0
      8903 MEMB     61       DOPC     C314     CTL2    -0.180000       12.0110           0
      8904 MEMB     61       DOPC     H14X     HAL2     0.900000E-01   1.00800           0
      8905 MEMB     61       DOPC     H14Y     HAL2     0.900000E-01   1.00800           0
      8906 MEMB     61       DOPC     C315     CTL2    -0.180000       12.0110           0
      8907 MEMB     61       DOPC     H15X     HAL2     0.900000E-01   1.00800           0
      8908 MEMB     61       DOPC     H15Y     HAL2     0.900000E-01   1.00800           0
      8909 MEMB     61       DOPC     C316     CTL2    -0.180000       12.0110           0
      8910 MEMB     61       DOPC     H16X     HAL2     0.900000E-01   1.00800           0
      8911 MEMB     61       DOPC     H16Y     HAL2     0.900000E-01   1.00800           0
      8912 MEMB     61       DOPC     C317     CTL2    -0.180000       12.0110           0
      8913 MEMB     61       DOPC     H17X     HAL2     0.900000E-01   1.00800           0
      8914 MEMB     61       DOPC     H17Y     HAL2     0.900000E-01   1.00800           0
      8915 MEMB     61       DOPC     C318     CTL3    -0.270000       12.0110           0
      8916 MEMB     61       DOPC     H18X     HAL3     0.900000E-01   1.00800           0
      8917 MEMB     61       DOPC     H18Y     HAL3     0.900000E-01   1.00800           0
      8918 MEMB     61       DOPC     H18Z     HAL3     0.900000E-01   1.00800           0
      8919 MEMB     62       DOPC     N        NTL     -0.600000       14.0070           0
      8920 MEMB     62       DOPC     C12      CTL2    -0.100000       12.0110           0
      8921 MEMB     62       DOPC     H12A     HL       0.250000       1.00800           0
      8922 MEMB     62       DOPC     H12B     HL       0.250000       1.00800           0
      8923 MEMB     62       DOPC     C13      CTL5    -0.350000       12.0110           0
      8924 MEMB     62       DOPC     H13A     HL       0.250000       1.00800           0
      8925 MEMB     62       DOPC     H13B     HL       0.250000       1.00800           0
      8926 MEMB     62       DOPC     H13C     HL       0.250000       1.00800           0
      8927 MEMB     62       DOPC     C14      CTL5    -0.350000       12.0110           0
      8928 MEMB     62       DOPC     H14A     HL       0.250000       1.00800           0
      8929 MEMB     62       DOPC     H14B     HL       0.250000       1.00800           0
      8930 MEMB     62       DOPC     H14C     HL       0.250000       1.00800           0
      8931 MEMB     62       DOPC     C15      CTL5    -0.350000       12.0110           0
      8932 MEMB     62       DOPC     H15A     HL       0.250000       1.00800           0
      8933 MEMB     62       DOPC     H15B     HL       0.250000       1.00800           0
      8934 MEMB     62       DOPC     H15C     HL       0.250000       1.00800           0
      8935 MEMB     62       DOPC     C11      CTL2    -0.800000E-01   12.0110           0
      8936 MEMB     62       DOPC     H11A     HAL2     0.900000E-01   1.00800           0
      8937 MEMB     62       DOPC     H11B     HAL2     0.900000E-01   1.00800           0
      8938 MEMB     62       DOPC     P        PL        1.50000       30.9740           0
      8939 MEMB     62       DOPC     O13      O2L     -0.780000       15.9994           0
      8940 MEMB     62       DOPC     O14      O2L     -0.780000       15.9994           0
      8941 MEMB     62       DOPC     O12      OSLP    -0.570000       15.9994           0
      8942 MEMB     62       DOPC     O11      OSLP    -0.570000       15.9994           0
      8943 MEMB     62       DOPC     C1       CTL2    -0.800000E-01   12.0110           0
      8944 MEMB     62       DOPC     HA       HAL2     0.900000E-01   1.00800           0
      8945 MEMB     62       DOPC     HB       HAL2     0.900000E-01   1.00800           0
      8946 MEMB     62       DOPC     C2       CTL1     0.170000       12.0110           0
      8947 MEMB     62       DOPC     HS       HAL1     0.900000E-01   1.00800           0
      8948 MEMB     62       DOPC     O21      OSL     -0.490000       15.9994           0
      8949 MEMB     62       DOPC     C21      CL       0.900000       12.0110           0
      8950 MEMB     62       DOPC     O22      OBL     -0.630000       15.9994           0
      8951 MEMB     62       DOPC     C22      CTL2    -0.220000       12.0110           0
      8952 MEMB     62       DOPC     H2R      HAL2     0.900000E-01   1.00800           0
      8953 MEMB     62       DOPC     H2S      HAL2     0.900000E-01   1.00800           0
      8954 MEMB     62       DOPC     C3       CTL2     0.800000E-01   12.0110           0
      8955 MEMB     62       DOPC     HX       HAL2     0.900000E-01   1.00800           0
      8956 MEMB     62       DOPC     HY       HAL2     0.900000E-01   1.00800           0
      8957 MEMB     62       DOPC     O31      OSL     -0.490000       15.9994           0
      8958 MEMB     62       DOPC     C31      CL       0.900000       12.0110           0
      8959 MEMB     62       DOPC     O32      OBL     -0.630000       15.9994           0
      8960 MEMB     62       DOPC     C32      CTL2    -0.220000       12.0110           0
      8961 MEMB     62       DOPC     H2X      HAL2     0.900000E-01   1.00800           0
      8962 MEMB     62       DOPC     H2Y      HAL2     0.900000E-01   1.00800           0
      8963 MEMB     62       DOPC     C23      CTL2    -0.180000       12.0110           0
      8964 MEMB     62       DOPC     H3R      HAL2     0.900000E-01   1.00800           0
      8965 MEMB     62       DOPC     H3S      HAL2     0.900000E-01   1.00800           0
      8966 MEMB     62       DOPC     C24      CTL2    -0.180000       12.0110           0
      8967 MEMB     62       DOPC     H4R      HAL2     0.900000E-01   1.00800           0
      8968 MEMB     62       DOPC     H4S      HAL2     0.900000E-01   1.00800           0
      8969 MEMB     62       DOPC     C25      CTL2    -0.180000       12.0110           0
      8970 MEMB     62       DOPC     H5R      HAL2     0.900000E-01   1.00800           0
      8971 MEMB     62       DOPC     H5S      HAL2     0.900000E-01   1.00800           0
      8972 MEMB     62       DOPC     C26      CTL2    -0.180000       12.0110           0
      8973 MEMB     62       DOPC     H6R      HAL2     0.900000E-01   1.00800           0
      8974 MEMB     62       DOPC     H6S      HAL2     0.900000E-01   1.00800           0
      8975 MEMB     62       DOPC     C27      CTL2    -0.180000       12.0110           0
      8976 MEMB     62       DOPC     H7R      HAL2     0.900000E-01   1.00800           0
      8977 MEMB     62       DOPC     H7S      HAL2     0.900000E-01   1.00800           0
      8978 MEMB     62       DOPC     C28      CTL2    -0.180000       12.0110           0
      8979 MEMB     62       DOPC     H8R      HAL2     0.900000E-01   1.00800           0
      8980 MEMB     62       DOPC     H8S      HAL2     0.900000E-01   1.00800           0
      8981 MEMB     62       DOPC     C29      CEL1    -0.150000       12.0110           0
      8982 MEMB     62       DOPC     H9R      HEL1     0.150000       1.00800           0
      8983 MEMB     62       DOPC     C210     CEL1    -0.150000       12.0110           0
      8984 MEMB     62       DOPC     H10R     HEL1     0.150000       1.00800           0
      8985 MEMB     62       DOPC     C211     CTL2    -0.180000       12.0110           0
      8986 MEMB     62       DOPC     H11R     HAL2     0.900000E-01   1.00800           0
      8987 MEMB     62       DOPC     H11S     HAL2     0.900000E-01   1.00800           0
      8988 MEMB     62       DOPC     C212     CTL2    -0.180000       12.0110           0
      8989 MEMB     62       DOPC     H12R     HAL2     0.900000E-01   1.00800           0
      8990 MEMB     62       DOPC     H12S     HAL2     0.900000E-01   1.00800           0
      8991 MEMB     62       DOPC     C213     CTL2    -0.180000       12.0110           0
      8992 MEMB     62       DOPC     H13R     HAL2     0.900000E-01   1.00800           0
      8993 MEMB     62       DOPC     H13S     HAL2     0.900000E-01   1.00800           0
      8994 MEMB     62       DOPC     C214     CTL2    -0.180000       12.0110           0
      8995 MEMB     62       DOPC     H14R     HAL2     0.900000E-01   1.00800           0
      8996 MEMB     62       DOPC     H14S     HAL2     0.900000E-01   1.00800           0
      8997 MEMB     62       DOPC     C215     CTL2    -0.180000       12.0110           0
      8998 MEMB     62       DOPC     H15R     HAL2     0.900000E-01   1.00800           0
      8999 MEMB     62       DOPC     H15S     HAL2     0.900000E-01   1.00800           0
      9000 MEMB     62       DOPC     C216     CTL2    -0.180000       12.0110           0
      9001 MEMB     62       DOPC     H16R     HAL2     0.900000E-01   1.00800           0
      9002 MEMB     62       DOPC     H16S     HAL2     0.900000E-01   1.00800           0
      9003 MEMB     62       DOPC     C217     CTL2    -0.180000       12.0110           0
      9004 MEMB     62       DOPC     H17R     HAL2     0.900000E-01   1.00800           0
      9005 MEMB     62       DOPC     H17S     HAL2     0.900000E-01   1.00800           0
      9006 MEMB     62       DOPC     C218     CTL3    -0.270000       12.0110           0
      9007 MEMB     62       DOPC     H18R     HAL3     0.900000E-01   1.00800           0
      9008 MEMB     62       DOPC     H18S     HAL3     0.900000E-01   1.00800           0
      9009 MEMB     62       DOPC     H18T     HAL3     0.900000E-01   1.00800           0
      9010 MEMB     62       DOPC     C33      CTL2    -0.180000       12.0110           0
      9011 MEMB     62       DOPC     H3X      HAL2     0.900000E-01   1.00800           0
      9012 MEMB     62       DOPC     H3Y      HAL2     0.900000E-01   1.00800           0
      9013 MEMB     62       DOPC     C34      CTL2    -0.180000       12.0110           0
      9014 MEMB     62       DOPC     H4X      HAL2     0.900000E-01   1.00800           0
      9015 MEMB     62       DOPC     H4Y      HAL2     0.900000E-01   1.00800           0
      9016 MEMB     62       DOPC     C35      CTL2    -0.180000       12.0110           0
      9017 MEMB     62       DOPC     H5X      HAL2     0.900000E-01   1.00800           0
      9018 MEMB     62       DOPC     H5Y      HAL2     0.900000E-01   1.00800           0
      9019 MEMB     62       DOPC     C36      CTL2    -0.180000       12.0110           0
      9020 MEMB     62       DOPC     H6X      HAL2     0.900000E-01   1.00800           0
      9021 MEMB     62       DOPC     H6Y      HAL2     0.900000E-01   1.00800           0
      9022 MEMB     62       DOPC     C37      CTL2    -0.180000       12.0110           0
      9023 MEMB     62       DOPC     H7X      HAL2     0.900000E-01   1.00800           0
      9024 MEMB     62       DOPC     H7Y      HAL2     0.900000E-01   1.00800           0
      9025 MEMB     62       DOPC     C38      CTL2    -0.180000       12.0110           0
      9026 MEMB     62       DOPC     H8X      HAL2     0.900000E-01   1.00800           0
      9027 MEMB     62       DOPC     H8Y      HAL2     0.900000E-01   1.00800           0
      9028 MEMB     62       DOPC     C39      CEL1    -0.150000       12.0110           0
      9029 MEMB     62       DOPC     H9X      HEL1     0.150000       1.00800           0
      9030 MEMB     62       DOPC     C310     CEL1    -0.150000       12.0110           0
      9031 MEMB     62       DOPC     H10X     HEL1     0.150000       1.00800           0
      9032 MEMB     62       DOPC     C311     CTL2    -0.180000       12.0110           0
      9033 MEMB     62       DOPC     H11X     HAL2     0.900000E-01   1.00800           0
      9034 MEMB     62       DOPC     H11Y     HAL2     0.900000E-01   1.00800           0
      9035 MEMB     62       DOPC     C312     CTL2    -0.180000       12.0110           0
      9036 MEMB     62       DOPC     H12X     HAL2     0.900000E-01   1.00800           0
      9037 MEMB     62       DOPC     H12Y     HAL2     0.900000E-01   1.00800           0
      9038 MEMB     62       DOPC     C313     CTL2    -0.180000       12.0110           0
      9039 MEMB     62       DOPC     H13X     HAL2     0.900000E-01   1.00800           0
      9040 MEMB     62       DOPC     H13Y     HAL2     0.900000E-01   1.00800           0
      9041 MEMB     62       DOPC     C314     CTL2    -0.180000       12.0110           0
      9042 MEMB     62       DOPC     H14X     HAL2     0.900000E-01   1.00800           0
      9043 MEMB     62       DOPC     H14Y     HAL2     0.900000E-01   1.00800           0
      9044 MEMB     62       DOPC     C315     CTL2    -0.180000       12.0110           0
      9045 MEMB     62       DOPC     H15X     HAL2     0.900000E-01   1.00800           0
      9046 MEMB     62       DOPC     H15Y     HAL2     0.900000E-01   1.00800           0
      9047 MEMB     62       DOPC     C316     CTL2    -0.180000       12.0110           0
      9048 MEMB     62       DOPC     H16X     HAL2     0.900000E-01   1.00800           0
      9049 MEMB     62       DOPC     H16Y     HAL2     0.900000E-01   1.00800           0
      9050 MEMB     62       DOPC     C317     CTL2    -0.180000       12.0110           0
      9051 MEMB     62       DOPC     H17X     HAL2     0.900000E-01   1.00800           0
      9052 MEMB     62       DOPC     H17Y     HAL2     0.900000E-01   1.00800           0
      9053 MEMB     62       DOPC     C318     CTL3    -0.270000       12.0110           0
      9054 MEMB     62       DOPC     H18X     HAL3     0.900000E-01   1.00800           0
      9055 MEMB     62       DOPC     H18Y     HAL3     0.900000E-01   1.00800           0
      9056 MEMB     62       DOPC     H18Z     HAL3     0.900000E-01   1.00800           0
      9057 MEMB     63       DOPC     N        NTL     -0.600000       14.0070           0
      9058 MEMB     63       DOPC     C12      CTL2    -0.100000       12.0110           0
      9059 MEMB     63       DOPC     H12A     HL       0.250000       1.00800           0
      9060 MEMB     63       DOPC     H12B     HL       0.250000       1.00800           0
      9061 MEMB     63       DOPC     C13      CTL5    -0.350000       12.0110           0
      9062 MEMB     63       DOPC     H13A     HL       0.250000       1.00800           0
      9063 MEMB     63       DOPC     H13B     HL       0.250000       1.00800           0
      9064 MEMB     63       DOPC     H13C     HL       0.250000       1.00800           0
      9065 MEMB     63       DOPC     C14      CTL5    -0.350000       12.0110           0
      9066 MEMB     63       DOPC     H14A     HL       0.250000       1.00800           0
      9067 MEMB     63       DOPC     H14B     HL       0.250000       1.00800           0
      9068 MEMB     63       DOPC     H14C     HL       0.250000       1.00800           0
      9069 MEMB     63       DOPC     C15      CTL5    -0.350000       12.0110           0
      9070 MEMB     63       DOPC     H15A     HL       0.250000       1.00800           0
      9071 MEMB     63       DOPC     H15B     HL       0.250000       1.00800           0
      9072 MEMB     63       DOPC     H15C     HL       0.250000       1.00800           0
      9073 MEMB     63       DOPC     C11      CTL2    -0.800000E-01   12.0110           0
      9074 MEMB     63       DOPC     H11A     HAL2     0.900000E-01   1.00800           0
      9075 MEMB     63       DOPC     H11B     HAL2     0.900000E-01   1.00800           0
      9076 MEMB     63       DOPC     P        PL        1.50000       30.9740           0
      9077 MEMB     63       DOPC     O13      O2L     -0.780000       15.9994           0
      9078 MEMB     63       DOPC     O14      O2L     -0.780000       15.9994           0
      9079 MEMB     63       DOPC     O12      OSLP    -0.570000       15.9994           0
      9080 MEMB     63       DOPC     O11      OSLP    -0.570000       15.9994           0
      9081 MEMB     63       DOPC     C1       CTL2    -0.800000E-01   12.0110           0
      9082 MEMB     63       DOPC     HA       HAL2     0.900000E-01   1.00800           0
      9083 MEMB     63       DOPC     HB       HAL2     0.900000E-01   1.00800           0
      9084 MEMB     63       DOPC     C2       CTL1     0.170000       12.0110           0
      9085 MEMB     63       DOPC     HS       HAL1     0.900000E-01   1.00800           0
      9086 MEMB     63       DOPC     O21      OSL     -0.490000       15.9994           0
      9087 MEMB     63       DOPC     C21      CL       0.900000       12.0110           0
      9088 MEMB     63       DOPC     O22      OBL     -0.630000       15.9994           0
      9089 MEMB     63       DOPC     C22      CTL2    -0.220000       12.0110           0
      9090 MEMB     63       DOPC     H2R      HAL2     0.900000E-01   1.00800           0
      9091 MEMB     63       DOPC     H2S      HAL2     0.900000E-01   1.00800           0
      9092 MEMB     63       DOPC     C3       CTL2     0.800000E-01   12.0110           0
      9093 MEMB     63       DOPC     HX       HAL2     0.900000E-01   1.00800           0
      9094 MEMB     63       DOPC     HY       HAL2     0.900000E-01   1.00800           0
      9095 MEMB     63       DOPC     O31      OSL     -0.490000       15.9994           0
      9096 MEMB     63       DOPC     C31      CL       0.900000       12.0110           0
      9097 MEMB     63       DOPC     O32      OBL     -0.630000       15.9994           0
      9098 MEMB     63       DOPC     C32      CTL2    -0.220000       12.0110           0
      9099 MEMB     63       DOPC     H2X      HAL2     0.900000E-01   1.00800           0
      9100 MEMB     63       DOPC     H2Y      HAL2     0.900000E-01   1.00800           0
      9101 MEMB     63       DOPC     C23      CTL2    -0.180000       12.0110           0
      9102 MEMB     63       DOPC     H3R      HAL2     0.900000E-01   1.00800           0
      9103 MEMB     63       DOPC     H3S      HAL2     0.900000E-01   1.00800           0
      9104 MEMB     63       DOPC     C24      CTL2    -0.180000       12.0110           0
      9105 MEMB     63       DOPC     H4R      HAL2     0.900000E-01   1.00800           0
      9106 MEMB     63       DOPC     H4S      HAL2     0.900000E-01   1.00800           0
      9107 MEMB     63       DOPC     C25      CTL2    -0.180000       12.0110           0
      9108 MEMB     63       DOPC     H5R      HAL2     0.900000E-01   1.00800           0
      9109 MEMB     63       DOPC     H5S      HAL2     0.900000E-01   1.00800           0
      9110 MEMB     63       DOPC     C26      CTL2    -0.180000       12.0110           0
      9111 MEMB     63       DOPC     H6R      HAL2     0.900000E-01   1.00800           0
      9112 MEMB     63       DOPC     H6S      HAL2     0.900000E-01   1.00800           0
      9113 MEMB     63       DOPC     C27      CTL2    -0.180000       12.0110           0
      9114 MEMB     63       DOPC     H7R      HAL2     0.900000E-01   1.00800           0
      9115 MEMB     63       DOPC     H7S      HAL2     0.900000E-01   1.00800           0
      9116 MEMB     63       DOPC     C28      CTL2    -0.180000       12.0110           0
      9117 MEMB     63       DOPC     H8R      HAL2     0.900000E-01   1.00800           0
      9118 MEMB     63       DOPC     H8S      HAL2     0.900000E-01   1.00800           0
      9119 MEMB     63       DOPC     C29      CEL1    -0.150000       12.0110           0
      9120 MEMB     63       DOPC     H9R      HEL1     0.150000       1.00800           0
      9121 MEMB     63       DOPC     C210     CEL1    -0.150000       12.0110           0
      9122 MEMB     63       DOPC     H10R     HEL1     0.150000       1.00800           0
      9123 MEMB     63       DOPC     C211     CTL2    -0.180000       12.0110           0
      9124 MEMB     63       DOPC     H11R     HAL2     0.900000E-01   1.00800           0
      9125 MEMB     63       DOPC     H11S     HAL2     0.900000E-01   1.00800           0
      9126 MEMB     63       DOPC     C212     CTL2    -0.180000       12.0110           0
      9127 MEMB     63       DOPC     H12R     HAL2     0.900000E-01   1.00800           0
      9128 MEMB     63       DOPC     H12S     HAL2     0.900000E-01   1.00800           0
      9129 MEMB     63       DOPC     C213     CTL2    -0.180000       12.0110           0
      9130 MEMB     63       DOPC     H13R     HAL2     0.900000E-01   1.00800           0
      9131 MEMB     63       DOPC     H13S     HAL2     0.900000E-01   1.00800           0
      9132 MEMB     63       DOPC     C214     CTL2    -0.180000       12.0110           0
      9133 MEMB     63       DOPC     H14R     HAL2     0.900000E-01   1.00800           0
      9134 MEMB     63       DOPC     H14S     HAL2     0.900000E-01   1.00800           0
      9135 MEMB     63       DOPC     C215     CTL2    -0.180000       12.0110           0
      9136 MEMB     63       DOPC     H15R     HAL2     0.900000E-01   1.00800           0
      9137 MEMB     63       DOPC     H15S     HAL2     0.900000E-01   1.00800           0
      9138 MEMB     63       DOPC     C216     CTL2    -0.180000       12.0110           0
      9139 MEMB     63       DOPC     H16R     HAL2     0.900000E-01   1.00800           0
      9140 MEMB     63       DOPC     H16S     HAL2     0.900000E-01   1.00800           0
      9141 MEMB     63       DOPC     C217     CTL2    -0.180000       12.0110           0
      9142 MEMB     63       DOPC     H17R     HAL2     0.900000E-01   1.00800           0
      9143 MEMB     63       DOPC     H17S     HAL2     0.900000E-01   1.00800           0
      9144 MEMB     63       DOPC     C218     CTL3    -0.270000       12.0110           0
      9145 MEMB     63       DOPC     H18R     HAL3     0.900000E-01   1.00800           0
      9146 MEMB     63       DOPC     H18S     HAL3     0.900000E-01   1.00800           0
      9147 MEMB     63       DOPC     H18T     HAL3     0.900000E-01   1.00800           0
      9148 MEMB     63       DOPC     C33      CTL2    -0.180000       12.0110           0
      9149 MEMB     63       DOPC     H3X      HAL2     0.900000E-01   1.00800           0
      9150 MEMB     63       DOPC     H3Y      HAL2     0.900000E-01   1.00800           0
      9151 MEMB     63       DOPC     C34      CTL2    -0.180000       12.0110           0
      9152 MEMB     63       DOPC     H4X      HAL2     0.900000E-01   1.00800           0
      9153 MEMB     63       DOPC     H4Y      HAL2     0.900000E-01   1.00800           0
      9154 MEMB     63       DOPC     C35      CTL2    -0.180000       12.0110           0
      9155 MEMB     63       DOPC     H5X      HAL2     0.900000E-01   1.00800           0
      9156 MEMB     63       DOPC     H5Y      HAL2     0.900000E-01   1.00800           0
      9157 MEMB     63       DOPC     C36      CTL2    -0.180000       12.0110           0
      9158 MEMB     63       DOPC     H6X      HAL2     0.900000E-01   1.00800           0
      9159 MEMB     63       DOPC     H6Y      HAL2     0.900000E-01   1.00800           0
      9160 MEMB     63       DOPC     C37      CTL2    -0.180000       12.0110           0
      9161 MEMB     63       DOPC     H7X      HAL2     0.900000E-01   1.00800           0
      9162 MEMB     63       DOPC     H7Y      HAL2     0.900000E-01   1.00800           0
      9163 MEMB     63       DOPC     C38      CTL2    -0.180000       12.0110           0
      9164 MEMB     63       DOPC     H8X      HAL2     0.900000E-01   1.00800           0
      9165 MEMB     63       DOPC     H8Y      HAL2     0.900000E-01   1.00800           0
      9166 MEMB     63       DOPC     C39      CEL1    -0.150000       12.0110           0
      9167 MEMB     63       DOPC     H9X      HEL1     0.150000       1.00800           0
      9168 MEMB     63       DOPC     C310     CEL1    -0.150000       12.0110           0
      9169 MEMB     63       DOPC     H10X     HEL1     0.150000       1.00800           0
      9170 MEMB     63       DOPC     C311     CTL2    -0.180000       12.0110           0
      9171 MEMB     63       DOPC     H11X     HAL2     0.900000E-01   1.00800           0
      9172 MEMB     63       DOPC     H11Y     HAL2     0.900000E-01   1.00800           0
      9173 MEMB     63       DOPC     C312     CTL2    -0.180000       12.0110           0
      9174 MEMB     63       DOPC     H12X     HAL2     0.900000E-01   1.00800           0
      9175 MEMB     63       DOPC     H12Y     HAL2     0.900000E-01   1.00800           0
      9176 MEMB     63       DOPC     C313     CTL2    -0.180000       12.0110           0
      9177 MEMB     63       DOPC     H13X     HAL2     0.900000E-01   1.00800           0
      9178 MEMB     63       DOPC     H13Y     HAL2     0.900000E-01   1.00800           0
      9179 MEMB     63       DOPC     C314     CTL2    -0.180000       12.0110           0
      9180 MEMB     63       DOPC     H14X     HAL2     0.900000E-01   1.00800           0
      9181 MEMB     63       DOPC     H14Y     HAL2     0.900000E-01   1.00800           0
      9182 MEMB     63       DOPC     C315     CTL2    -0.180000       12.0110           0
      9183 MEMB     63       DOPC     H15X     HAL2     0.900000E-01   1.00800           0
      9184 MEMB     63       DOPC     H15Y     HAL2     0.900000E-01   1.00800           0
      9185 MEMB     63       DOPC     C316     CTL2    -0.180000       12.0110           0
      9186 MEMB     63       DOPC     H16X     HAL2     0.900000E-01   1.00800           0
      9187 MEMB     63       DOPC     H16Y     HAL2     0.900000E-01   1.00800           0
      9188 MEMB     63       DOPC     C317     CTL2    -0.180000       12.0110           0
      9189 MEMB     63       DOPC     H17X     HAL2     0.900000E-01   1.00800           0
      9190 MEMB     63       DOPC     H17Y     HAL2     0.900000E-01   1.00800           0
      9191 MEMB     63       DOPC     C318     CTL3    -0.270000       12.0110           0
      9192 MEMB     63       DOPC     H18X     HAL3     0.900000E-01   1.00800           0
      9193 MEMB     63       DOPC     H18Y     HAL3     0.900000E-01   1.00800           0
      9194 MEMB     63       DOPC     H18Z     HAL3     0.900000E-01   1.00800           0
      9195 MEMB     64       DOPC     N        NTL     -0.600000       14.0070           0
      9196 MEMB     64       DOPC     C12      CTL2    -0.100000       12.0110           0
      9197 MEMB     64       DOPC     H12A     HL       0.250000       1.00800           0
      9198 MEMB     64       DOPC     H12B     HL       0.250000       1.00800           0
      9199 MEMB     64       DOPC     C13      CTL5    -0.350000       12.0110           0
      9200 MEMB     64       DOPC     H13A     HL       0.250000       1.00800           0
      9201 MEMB     64       DOPC     H13B     HL       0.250000       1.00800           0
      9202 MEMB     64       DOPC     H13C     HL       0.250000       1.00800           0
      9203 MEMB     64       DOPC     C14      CTL5    -0.350000       12.0110           0
      9204 MEMB     64       DOPC     H14A     HL       0.250000       1.00800           0
      9205 MEMB     64       DOPC     H14B     HL       0.250000       1.00800           0
      9206 MEMB     64       DOPC     H14C     HL       0.250000       1.00800           0
      9207 MEMB     64       DOPC     C15      CTL5    -0.350000       12.0110           0
      9208 MEMB     64       DOPC     H15A     HL       0.250000       1.00800           0
      9209 MEMB     64       DOPC     H15B     HL       0.250000       1.00800           0
      9210 MEMB     64       DOPC     H15C     HL       0.250000       1.00800           0
      9211 MEMB     64       DOPC     C11      CTL2    -0.800000E-01   12.0110           0
      9212 MEMB     64       DOPC     H11A     HAL2     0.900000E-01   1.00800           0
      9213 MEMB     64       DOPC     H11B     HAL2     0.900000E-01   1.00800           0
      9214 MEMB     64       DOPC     P        PL        1.50000       30.9740           0
      9215 MEMB     64       DOPC     O13      O2L     -0.780000       15.9994           0
      9216 MEMB     64       DOPC     O14      O2L     -0.780000       15.9994           0
      9217 MEMB     64       DOPC     O12      OSLP    -0.570000       15.9994           0
      9218 MEMB     64       DOPC     O11      OSLP    -0.570000       15.9994           0
      9219 MEMB     64       DOPC     C1       CTL2    -0.800000E-01   12.0110           0
      9220 MEMB     64       DOPC     HA       HAL2     0.900000E-01   1.00800           0
      9221 MEMB     64       DOPC     HB       HAL2     0.900000E-01   1.00800           0
      9222 MEMB     64       DOPC     C2       CTL1     0.170000       12.0110           0
      9223 MEMB     64       DOPC     HS       HAL1     0.900000E-01   1.00800           0
      9224 MEMB     64       DOPC     O21      OSL     -0.490000       15.9994           0
      9225 MEMB     64       DOPC     C21      CL       0.900000       12.0110           0
      9226 MEMB     64       DOPC     O22      OBL     -0.630000       15.9994           0
      9227 MEMB     64       DOPC     C22      CTL2    -0.220000       12.0110           0
      9228 MEMB     64       DOPC     H2R      HAL2     0.900000E-01   1.00800           0
      9229 MEMB     64       DOPC     H2S      HAL2     0.900000E-01   1.00800           0
      9230 MEMB     64       DOPC     C3       CTL2     0.800000E-01   12.0110           0
      9231 MEMB     64       DOPC     HX       HAL2     0.900000E-01   1.00800           0
      9232 MEMB     64       DOPC     HY       HAL2     0.900000E-01   1.00800           0
      9233 MEMB     64       DOPC     O31      OSL     -0.490000       15.9994           0
      9234 MEMB     64       DOPC     C31      CL       0.900000       12.0110           0
      9235 MEMB     64       DOPC     O32      OBL     -0.630000       15.9994           0
      9236 MEMB     64       DOPC     C32      CTL2    -0.220000       12.0110           0
      9237 MEMB     64       DOPC     H2X      HAL2     0.900000E-01   1.00800           0
      9238 MEMB     64       DOPC     H2Y      HAL2     0.900000E-01   1.00800           0
      9239 MEMB     64       DOPC     C23      CTL2    -0.180000       12.0110           0
      9240 MEMB     64       DOPC     H3R      HAL2     0.900000E-01   1.00800           0
      9241 MEMB     64       DOPC     H3S      HAL2     0.900000E-01   1.00800           0
      9242 MEMB     64       DOPC     C24      CTL2    -0.180000       12.0110           0
      9243 MEMB     64       DOPC     H4R      HAL2     0.900000E-01   1.00800           0
      9244 MEMB     64       DOPC     H4S      HAL2     0.900000E-01   1.00800           0
      9245 MEMB     64       DOPC     C25      CTL2    -0.180000       12.0110           0
      9246 MEMB     64       DOPC     H5R      HAL2     0.900000E-01   1.00800           0
      9247 MEMB     64       DOPC     H5S      HAL2     0.900000E-01   1.00800           0
      9248 MEMB     64       DOPC     C26      CTL2    -0.180000       12.0110           0
      9249 MEMB     64       DOPC     H6R      HAL2     0.900000E-01   1.00800           0
      9250 MEMB     64       DOPC     H6S      HAL2     0.900000E-01   1.00800           0
      9251 MEMB     64       DOPC     C27      CTL2    -0.180000       12.0110           0
      9252 MEMB     64       DOPC     H7R      HAL2     0.900000E-01   1.00800           0
      9253 MEMB     64       DOPC     H7S      HAL2     0.900000E-01   1.00800           0
      9254 MEMB     64       DOPC     C28      CTL2    -0.180000       12.0110           0
      9255 MEMB     64       DOPC     H8R      HAL2     0.900000E-01   1.00800           0
      9256 MEMB     64       DOPC     H8S      HAL2     0.900000E-01   1.00800           0
      9257 MEMB     64       DOPC     C29      CEL1    -0.150000       12.0110           0
      9258 MEMB     64       DOPC     H9R      HEL1     0.150000       1.00800           0
      9259 MEMB     64       DOPC     C210     CEL1    -0.150000       12.0110           0
      9260 MEMB     64       DOPC     H10R     HEL1     0.150000       1.00800           0
      9261 MEMB     64       DOPC     C211     CTL2    -0.180000       12.0110           0
      9262 MEMB     64       DOPC     H11R     HAL2     0.900000E-01   1.00800           0
      9263 MEMB     64       DOPC     H11S     HAL2     0.900000E-01   1.00800           0
      9264 MEMB     64       DOPC     C212     CTL2    -0.180000       12.0110           0
      9265 MEMB     64       DOPC     H12R     HAL2     0.900000E-01   1.00800           0
      9266 MEMB     64       DOPC     H12S     HAL2     0.900000E-01   1.00800           0
      9267 MEMB     64       DOPC     C213     CTL2    -0.180000       12.0110           0
      9268 MEMB     64       DOPC     H13R     HAL2     0.900000E-01   1.00800           0
      9269 MEMB     64       DOPC     H13S     HAL2     0.900000E-01   1.00800           0
      9270 MEMB     64       DOPC     C214     CTL2    -0.180000       12.0110           0
      9271 MEMB     64       DOPC     H14R     HAL2     0.900000E-01   1.00800           0
      9272 MEMB     64       DOPC     H14S     HAL2     0.900000E-01   1.00800           0
      9273 MEMB     64       DOPC     C215     CTL2    -0.180000       12.0110           0
      9274 MEMB     64       DOPC     H15R     HAL2     0.900000E-01   1.00800           0
      9275 MEMB     64       DOPC     H15S     HAL2     0.900000E-01   1.00800           0
      9276 MEMB     64       DOPC     C216     CTL2    -0.180000       12.0110           0
      9277 MEMB     64       DOPC     H16R     HAL2     0.900000E-01   1.00800           0
      9278 MEMB     64       DOPC     H16S     HAL2     0.900000E-01   1.00800           0
      9279 MEMB     64       DOPC     C217     CTL2    -0.180000       12.0110           0
      9280 MEMB     64       DOPC     H17R     HAL2     0.900000E-01   1.00800           0
      9281 MEMB     64       DOPC     H17S     HAL2     0.900000E-01   1.00800           0
      9282 MEMB     64       DOPC     C218     CTL3    -0.270000       12.0110           0
      9283 MEMB     64       DOPC     H18R     HAL3     0.900000E-01   1.00800           0
      9284 MEMB     64       DOPC     H18S     HAL3     0.900000E-01   1.00800           0
      9285 MEMB     64       DOPC     H18T     HAL3     0.900000E-01   1.00800           0
      9286 MEMB     64       DOPC     C33      CTL2    -0.180000       12.0110           0
      9287 MEMB     64       DOPC     H3X      HAL2     0.900000E-01   1.00800           0
      9288 MEMB     64       DOPC     H3Y      HAL2     0.900000E-01   1.00800           0
      9289 MEMB     64       DOPC     C34      CTL2    -0.180000       12.0110           0
      9290 MEMB     64       DOPC     H4X      HAL2     0.900000E-01   1.00800           0
      9291 MEMB     64       DOPC     H4Y      HAL2     0.900000E-01   1.00800           0
      9292 MEMB     64       DOPC     C35      CTL2    -0.180000       12.0110           0
      9293 MEMB     64       DOPC     H5X      HAL2     0.900000E-01   1.00800           0
      9294 MEMB     64       DOPC     H5Y      HAL2     0.900000E-01   1.00800           0
      9295 MEMB     64       DOPC     C36      CTL2    -0.180000       12.0110           0
      9296 MEMB     64       DOPC     H6X      HAL2     0.900000E-01   1.00800           0
      9297 MEMB     64       DOPC     H6Y      HAL2     0.900000E-01   1.00800           0
      9298 MEMB     64       DOPC     C37      CTL2    -0.180000       12.0110           0
      9299 MEMB     64       DOPC     H7X      HAL2     0.900000E-01   1.00800           0
      9300 MEMB     64       DOPC     H7Y      HAL2     0.900000E-01   1.00800           0
      9301 MEMB     64       DOPC     C38      CTL2    -0.180000       12.0110           0
      9302 MEMB     64       DOPC     H8X      HAL2     0.900000E-01   1.00800           0
      9303 MEMB     64       DOPC     H8Y      HAL2     0.900000E-01   1.00800           0
      9304 MEMB     64       DOPC     C39      CEL1    -0.150000       12.0110           0
      9305 MEMB     64       DOPC     H9X      HEL1     0.150000       1.00800           0
      9306 MEMB     64       DOPC     C310     CEL1    -0.150000       12.0110           0
      9307 MEMB     64       DOPC     H10X     HEL1     0.150000       1.00800           0
      9308 MEMB     64       DOPC     C311     CTL2    -0.180000       12.0110           0
      9309 MEMB     64       DOPC     H11X     HAL2     0.900000E-01   1.00800           0
      9310 MEMB     64       DOPC     H11Y     HAL2     0.900000E-01   1.00800           0
      9311 MEMB     64       DOPC     C312     CTL2    -0.180000       12.0110           0
      9312 MEMB     64       DOPC     H12X     HAL2     0.900000E-01   1.00800           0
      9313 MEMB     64       DOPC     H12Y     HAL2     0.900000E-01   1.00800           0
      9314 MEMB     64       DOPC     C313     CTL2    -0.180000       12.0110           0
      9315 MEMB     64       DOPC     H13X     HAL2     0.900000E-01   1.00800           0
      9316 MEMB     64       DOPC     H13Y     HAL2     0.900000E-01   1.00800           0
      9317 MEMB     64       DOPC     C314     CTL2    -0.180000       12.0110           0
      9318 MEMB     64       DOPC     H14X     HAL2     0.900000E-01   1.00800           0
      9319 MEMB     64       DOPC     H14Y     HAL2     0.900000E-01   1.00800           0
      9320 MEMB     64       DOPC     C315     CTL2    -0.180000       12.0110           0
      9321 MEMB     64       DOPC     H15X     HAL2     0.900000E-01   1.00800           0
      9322 MEMB     64       DOPC     H15Y     HAL2     0.900000E-01   1.00800           0
      9323 MEMB     64       DOPC     C316     CTL2    -0.180000       12.0110           0
      9324 MEMB     64       DOPC     H16X     HAL2     0.900000E-01   1.00800           0
      9325 MEMB     64       DOPC     H16Y     HAL2     0.900000E-01   1.00800           0
      9326 MEMB     64       DOPC     C317     CTL2    -0.180000       12.0110           0
      9327 MEMB     64       DOPC     H17X     HAL2     0.900000E-01   1.00800           0
      9328 MEMB     64       DOPC     H17Y     HAL2     0.900000E-01   1.00800           0
      9329 MEMB     64       DOPC     C318     CTL3    -0.270000       12.0110           0
      9330 MEMB     64       DOPC     H18X     HAL3     0.900000E-01   1.00800           0
      9331 MEMB     64       DOPC     H18Y     HAL3     0.900000E-01   1.00800           0
      9332 MEMB     64       DOPC     H18Z     HAL3     0.900000E-01   1.00800           0
      9333 MEMB     65       DOPC     N        NTL     -0.600000       14.0070           0
      9334 MEMB     65       DOPC     C12      CTL2    -0.100000       12.0110           0
      9335 MEMB     65       DOPC     H12A     HL       0.250000       1.00800           0
      9336 MEMB     65       DOPC     H12B     HL       0.250000       1.00800           0
      9337 MEMB     65       DOPC     C13      CTL5    -0.350000       12.0110           0
      9338 MEMB     65       DOPC     H13A     HL       0.250000       1.00800           0
      9339 MEMB     65       DOPC     H13B     HL       0.250000       1.00800           0
      9340 MEMB     65       DOPC     H13C     HL       0.250000       1.00800           0
      9341 MEMB     65       DOPC     C14      CTL5    -0.350000       12.0110           0
      9342 MEMB     65       DOPC     H14A     HL       0.250000       1.00800           0
      9343 MEMB     65       DOPC     H14B     HL       0.250000       1.00800           0
      9344 MEMB     65       DOPC     H14C     HL       0.250000       1.00800           0
      9345 MEMB     65       DOPC     C15      CTL5    -0.350000       12.0110           0
      9346 MEMB     65       DOPC     H15A     HL       0.250000       1.00800           0
      9347 MEMB     65       DOPC     H15B     HL       0.250000       1.00800           0
      9348 MEMB     65       DOPC     H15C     HL       0.250000       1.00800           0
      9349 MEMB     65       DOPC     C11      CTL2    -0.800000E-01   12.0110           0
      9350 MEMB     65       DOPC     H11A     HAL2     0.900000E-01   1.00800           0
      9351 MEMB     65       DOPC     H11B     HAL2     0.900000E-01   1.00800           0
      9352 MEMB     65       DOPC     P        PL        1.50000       30.9740           0
      9353 MEMB     65       DOPC     O13      O2L     -0.780000       15.9994           0
      9354 MEMB     65       DOPC     O14      O2L     -0.780000       15.9994           0
      9355 MEMB     65       DOPC     O12      OSLP    -0.570000       15.9994           0
      9356 MEMB     65       DOPC     O11      OSLP    -0.570000       15.9994           0
      9357 MEMB     65       DOPC     C1       CTL2    -0.800000E-01   12.0110           0
      9358 MEMB     65       DOPC     HA       HAL2     0.900000E-01   1.00800           0
      9359 MEMB     65       DOPC     HB       HAL2     0.900000E-01   1.00800           0
      9360 MEMB     65       DOPC     C2       CTL1     0.170000       12.0110           0
      9361 MEMB     65       DOPC     HS       HAL1     0.900000E-01   1.00800           0
      9362 MEMB     65       DOPC     O21      OSL     -0.490000       15.9994           0
      9363 MEMB     65       DOPC     C21      CL       0.900000       12.0110           0
      9364 MEMB     65       DOPC     O22      OBL     -0.630000       15.9994           0
      9365 MEMB     65       DOPC     C22      CTL2    -0.220000       12.0110           0
      9366 MEMB     65       DOPC     H2R      HAL2     0.900000E-01   1.00800           0
      9367 MEMB     65       DOPC     H2S      HAL2     0.900000E-01   1.00800           0
      9368 MEMB     65       DOPC     C3       CTL2     0.800000E-01   12.0110           0
      9369 MEMB     65       DOPC     HX       HAL2     0.900000E-01   1.00800           0
      9370 MEMB     65       DOPC     HY       HAL2     0.900000E-01   1.00800           0
      9371 MEMB     65       DOPC     O31      OSL     -0.490000       15.9994           0
      9372 MEMB     65       DOPC     C31      CL       0.900000       12.0110           0
      9373 MEMB     65       DOPC     O32      OBL     -0.630000       15.9994           0
      9374 MEMB     65       DOPC     C32      CTL2    -0.220000       12.0110           0
      9375 MEMB     65       DOPC     H2X      HAL2     0.900000E-01   1.00800           0
      9376 MEMB     65       DOPC     H2Y      HAL2     0.900000E-01   1.00800           0
      9377 MEMB     65       DOPC     C23      CTL2    -0.180000       12.0110           0
      9378 MEMB     65       DOPC     H3R      HAL2     0.900000E-01   1.00800           0
      9379 MEMB     65       DOPC     H3S      HAL2     0.900000E-01   1.00800           0
      9380 MEMB     65       DOPC     C24      CTL2    -0.180000       12.0110           0
      9381 MEMB     65       DOPC     H4R      HAL2     0.900000E-01   1.00800           0
      9382 MEMB     65       DOPC     H4S      HAL2     0.900000E-01   1.00800           0
      9383 MEMB     65       DOPC     C25      CTL2    -0.180000       12.0110           0
      9384 MEMB     65       DOPC     H5R      HAL2     0.900000E-01   1.00800           0
      9385 MEMB     65       DOPC     H5S      HAL2     0.900000E-01   1.00800           0
      9386 MEMB     65       DOPC     C26      CTL2    -0.180000       12.0110           0
      9387 MEMB     65       DOPC     H6R      HAL2     0.900000E-01   1.00800           0
      9388 MEMB     65       DOPC     H6S      HAL2     0.900000E-01   1.00800           0
      9389 MEMB     65       DOPC     C27      CTL2    -0.180000       12.0110           0
      9390 MEMB     65       DOPC     H7R      HAL2     0.900000E-01   1.00800           0
      9391 MEMB     65       DOPC     H7S      HAL2     0.900000E-01   1.00800           0
      9392 MEMB     65       DOPC     C28      CTL2    -0.180000       12.0110           0
      9393 MEMB     65       DOPC     H8R      HAL2     0.900000E-01   1.00800           0
      9394 MEMB     65       DOPC     H8S      HAL2     0.900000E-01   1.00800           0
      9395 MEMB     65       DOPC     C29      CEL1    -0.150000       12.0110           0
      9396 MEMB     65       DOPC     H9R      HEL1     0.150000       1.00800           0
      9397 MEMB     65       DOPC     C210     CEL1    -0.150000       12.0110           0
      9398 MEMB     65       DOPC     H10R     HEL1     0.150000       1.00800           0
      9399 MEMB     65       DOPC     C211     CTL2    -0.180000       12.0110           0
      9400 MEMB     65       DOPC     H11R     HAL2     0.900000E-01   1.00800           0
      9401 MEMB     65       DOPC     H11S     HAL2     0.900000E-01   1.00800           0
      9402 MEMB     65       DOPC     C212     CTL2    -0.180000       12.0110           0
      9403 MEMB     65       DOPC     H12R     HAL2     0.900000E-01   1.00800           0
      9404 MEMB     65       DOPC     H12S     HAL2     0.900000E-01   1.00800           0
      9405 MEMB     65       DOPC     C213     CTL2    -0.180000       12.0110           0
      9406 MEMB     65       DOPC     H13R     HAL2     0.900000E-01   1.00800           0
      9407 MEMB     65       DOPC     H13S     HAL2     0.900000E-01   1.00800           0
      9408 MEMB     65       DOPC     C214     CTL2    -0.180000       12.0110           0
      9409 MEMB     65       DOPC     H14R     HAL2     0.900000E-01   1.00800           0
      9410 MEMB     65       DOPC     H14S     HAL2     0.900000E-01   1.00800           0
      9411 MEMB     65       DOPC     C215     CTL2    -0.180000       12.0110           0
      9412 MEMB     65       DOPC     H15R     HAL2     0.900000E-01   1.00800           0
      9413 MEMB     65       DOPC     H15S     HAL2     0.900000E-01   1.00800           0
      9414 MEMB     65       DOPC     C216     CTL2    -0.180000       12.0110           0
      9415 MEMB     65       DOPC     H16R     HAL2     0.900000E-01   1.00800           0
      9416 MEMB     65       DOPC     H16S     HAL2     0.900000E-01   1.00800           0
      9417 MEMB     65       DOPC     C217     CTL2    -0.180000       12.0110           0
      9418 MEMB     65       DOPC     H17R     HAL2     0.900000E-01   1.00800           0
      9419 MEMB     65       DOPC     H17S     HAL2     0.900000E-01   1.00800           0
      9420 MEMB     65       DOPC     C218     CTL3    -0.270000       12.0110           0
      9421 MEMB     65       DOPC     H18R     HAL3     0.900000E-01   1.00800           0
      9422 MEMB     65       DOPC     H18S     HAL3     0.900000E-01   1.00800           0
      9423 MEMB     65       DOPC     H18T     HAL3     0.900000E-01   1.00800           0
      9424 MEMB     65       DOPC     C33      CTL2    -0.180000       12.0110           0
      9425 MEMB     65       DOPC     H3X      HAL2     0.900000E-01   1.00800           0
      9426 MEMB     65       DOPC     H3Y      HAL2     0.900000E-01   1.00800           0
      9427 MEMB     65       DOPC     C34      CTL2    -0.180000       12.0110           0
      9428 MEMB     65       DOPC     H4X      HAL2     0.900000E-01   1.00800           0
      9429 MEMB     65       DOPC     H4Y      HAL2     0.900000E-01   1.00800           0
      9430 MEMB     65       DOPC     C35      CTL2    -0.180000       12.0110           0
      9431 MEMB     65       DOPC     H5X      HAL2     0.900000E-01   1.00800           0
      9432 MEMB     65       DOPC     H5Y      HAL2     0.900000E-01   1.00800           0
      9433 MEMB     65       DOPC     C36      CTL2    -0.180000       12.0110           0
      9434 MEMB     65       DOPC     H6X      HAL2     0.900000E-01   1.00800           0
      9435 MEMB     65       DOPC     H6Y      HAL2     0.900000E-01   1.00800           0
      9436 MEMB     65       DOPC     C37      CTL2    -0.180000       12.0110           0
      9437 MEMB     65       DOPC     H7X      HAL2     0.900000E-01   1.00800           0
      9438 MEMB     65       DOPC     H7Y      HAL2     0.900000E-01   1.00800           0
      9439 MEMB     65       DOPC     C38      CTL2    -0.180000       12.0110           0
      9440 MEMB     65       DOPC     H8X      HAL2     0.900000E-01   1.00800           0
      9441 MEMB     65       DOPC     H8Y      HAL2     0.900000E-01   1.00800           0
      9442 MEMB     65       DOPC     C39      CEL1    -0.150000       12.0110           0
      9443 MEMB     65       DOPC     H9X      HEL1     0.150000       1.00800           0
      9444 MEMB     65       DOPC     C310     CEL1    -0.150000       12.0110           0
      9445 MEMB     65       DOPC     H10X     HEL1     0.150000       1.00800           0
      9446 MEMB     65       DOPC     C311     CTL2    -0.180000       12.0110           0
      9447 MEMB     65       DOPC     H11X     HAL2     0.900000E-01   1.00800           0
      9448 MEMB     65       DOPC     H11Y     HAL2     0.900000E-01   1.00800           0
      9449 MEMB     65       DOPC     C312     CTL2    -0.180000       12.0110           0
      9450 MEMB     65       DOPC     H12X     HAL2     0.900000E-01   1.00800           0
      9451 MEMB     65       DOPC     H12Y     HAL2     0.900000E-01   1.00800           0
      9452 MEMB     65       DOPC     C313     CTL2    -0.180000       12.0110           0
      9453 MEMB     65       DOPC     H13X     HAL2     0.900000E-01   1.00800           0
      9454 MEMB     65       DOPC     H13Y     HAL2     0.900000E-01   1.00800           0
      9455 MEMB     65       DOPC     C314     CTL2    -0.180000       12.0110           0
      9456 MEMB     65       DOPC     H14X     HAL2     0.900000E-01   1.00800           0
      9457 MEMB     65       DOPC     H14Y     HAL2     0.900000E-01   1.00800           0
      9458 MEMB     65       DOPC     C315     CTL2    -0.180000       12.0110           0
      9459 MEMB     65       DOPC     H15X     HAL2     0.900000E-01   1.00800           0
      9460 MEMB     65       DOPC     H15Y     HAL2     0.900000E-01   1.00800           0
      9461 MEMB     65       DOPC     C316     CTL2    -0.180000       12.0110           0
      9462 MEMB     65       DOPC     H16X     HAL2     0.900000E-01   1.00800           0
      9463 MEMB     65       DOPC     H16Y     HAL2     0.900000E-01   1.00800           0
      9464 MEMB     65       DOPC     C317     CTL2    -0.180000       12.0110           0
      9465 MEMB     65       DOPC     H17X     HAL2     0.900000E-01   1.00800           0
      9466 MEMB     65       DOPC     H17Y     HAL2     0.900000E-01   1.00800           0
      9467 MEMB     65       DOPC     C318     CTL3    -0.270000       12.0110           0
      9468 MEMB     65       DOPC     H18X     HAL3     0.900000E-01   1.00800           0
      9469 MEMB     65       DOPC     H18Y     HAL3     0.900000E-01   1.00800           0
      9470 MEMB     65       DOPC     H18Z     HAL3     0.900000E-01   1.00800           0
      9471 MEMB     66       DOPC     N        NTL     -0.600000       14.0070           0
      9472 MEMB     66       DOPC     C12      CTL2    -0.100000       12.0110           0
      9473 MEMB     66       DOPC     H12A     HL       0.250000       1.00800           0
      9474 MEMB     66       DOPC     H12B     HL       0.250000       1.00800           0
      9475 MEMB     66       DOPC     C13      CTL5    -0.350000       12.0110           0
      9476 MEMB     66       DOPC     H13A     HL       0.250000       1.00800           0
      9477 MEMB     66       DOPC     H13B     HL       0.250000       1.00800           0
      9478 MEMB     66       DOPC     H13C     HL       0.250000       1.00800           0
      9479 MEMB     66       DOPC     C14      CTL5    -0.350000       12.0110           0
      9480 MEMB     66       DOPC     H14A     HL       0.250000       1.00800           0
      9481 MEMB     66       DOPC     H14B     HL       0.250000       1.00800           0
      9482 MEMB     66       DOPC     H14C     HL       0.250000       1.00800           0
      9483 MEMB     66       DOPC     C15      CTL5    -0.350000       12.0110           0
      9484 MEMB     66       DOPC     H15A     HL       0.250000       1.00800           0
      9485 MEMB     66       DOPC     H15B     HL       0.250000       1.00800           0
      9486 MEMB     66       DOPC     H15C     HL       0.250000       1.00800           0
      9487 MEMB     66       DOPC     C11      CTL2    -0.800000E-01   12.0110           0
      9488 MEMB     66       DOPC     H11A     HAL2     0.900000E-01   1.00800           0
      9489 MEMB     66       DOPC     H11B     HAL2     0.900000E-01   1.00800           0
      9490 MEMB     66       DOPC     P        PL        1.50000       30.9740           0
      9491 MEMB     66       DOPC     O13      O2L     -0.780000       15.9994           0
      9492 MEMB     66       DOPC     O14      O2L     -0.780000       15.9994           0
      9493 MEMB     66       DOPC     O12      OSLP    -0.570000       15.9994           0
      9494 MEMB     66       DOPC     O11      OSLP    -0.570000       15.9994           0
      9495 MEMB     66       DOPC     C1       CTL2    -0.800000E-01   12.0110           0
      9496 MEMB     66       DOPC     HA       HAL2     0.900000E-01   1.00800           0
      9497 MEMB     66       DOPC     HB       HAL2     0.900000E-01   1.00800           0
      9498 MEMB     66       DOPC     C2       CTL1     0.170000       12.0110           0
      9499 MEMB     66       DOPC     HS       HAL1     0.900000E-01   1.00800           0
      9500 MEMB     66       DOPC     O21      OSL     -0.490000       15.9994           0
      9501 MEMB     66       DOPC     C21      CL       0.900000       12.0110           0
      9502 MEMB     66       DOPC     O22      OBL     -0.630000       15.9994           0
      9503 MEMB     66       DOPC     C22      CTL2    -0.220000       12.0110           0
      9504 MEMB     66       DOPC     H2R      HAL2     0.900000E-01   1.00800           0
      9505 MEMB     66       DOPC     H2S      HAL2     0.900000E-01   1.00800           0
      9506 MEMB     66       DOPC     C3       CTL2     0.800000E-01   12.0110           0
      9507 MEMB     66       DOPC     HX       HAL2     0.900000E-01   1.00800           0
      9508 MEMB     66       DOPC     HY       HAL2     0.900000E-01   1.00800           0
      9509 MEMB     66       DOPC     O31      OSL     -0.490000       15.9994           0
      9510 MEMB     66       DOPC     C31      CL       0.900000       12.0110           0
      9511 MEMB     66       DOPC     O32      OBL     -0.630000       15.9994           0
      9512 MEMB     66       DOPC     C32      CTL2    -0.220000       12.0110           0
      9513 MEMB     66       DOPC     H2X      HAL2     0.900000E-01   1.00800           0
      9514 MEMB     66       DOPC     H2Y      HAL2     0.900000E-01   1.00800           0
      9515 MEMB     66       DOPC     C23      CTL2    -0.180000       12.0110           0
      9516 MEMB     66       DOPC     H3R      HAL2     0.900000E-01   1.00800           0
      9517 MEMB     66       DOPC     H3S      HAL2     0.900000E-01   1.00800           0
      9518 MEMB     66       DOPC     C24      CTL2    -0.180000       12.0110           0
      9519 MEMB     66       DOPC     H4R      HAL2     0.900000E-01   1.00800           0
      9520 MEMB     66       DOPC     H4S      HAL2     0.900000E-01   1.00800           0
      9521 MEMB     66       DOPC     C25      CTL2    -0.180000       12.0110           0
      9522 MEMB     66       DOPC     H5R      HAL2     0.900000E-01   1.00800           0
      9523 MEMB     66       DOPC     H5S      HAL2     0.900000E-01   1.00800           0
      9524 MEMB     66       DOPC     C26      CTL2    -0.180000       12.0110           0
      9525 MEMB     66       DOPC     H6R      HAL2     0.900000E-01   1.00800           0
      9526 MEMB     66       DOPC     H6S      HAL2     0.900000E-01   1.00800           0
      9527 MEMB     66       DOPC     C27      CTL2    -0.180000       12.0110           0
      9528 MEMB     66       DOPC     H7R      HAL2     0.900000E-01   1.00800           0
      9529 MEMB     66       DOPC     H7S      HAL2     0.900000E-01   1.00800           0
      9530 MEMB     66       DOPC     C28      CTL2    -0.180000       12.0110           0
      9531 MEMB     66       DOPC     H8R      HAL2     0.900000E-01   1.00800           0
      9532 MEMB     66       DOPC     H8S      HAL2     0.900000E-01   1.00800           0
      9533 MEMB     66       DOPC     C29      CEL1    -0.150000       12.0110           0
      9534 MEMB     66       DOPC     H9R      HEL1     0.150000       1.00800           0
      9535 MEMB     66       DOPC     C210     CEL1    -0.150000       12.0110           0
      9536 MEMB     66       DOPC     H10R     HEL1     0.150000       1.00800           0
      9537 MEMB     66       DOPC     C211     CTL2    -0.180000       12.0110           0
      9538 MEMB     66       DOPC     H11R     HAL2     0.900000E-01   1.00800           0
      9539 MEMB     66       DOPC     H11S     HAL2     0.900000E-01   1.00800           0
      9540 MEMB     66       DOPC     C212     CTL2    -0.180000       12.0110           0
      9541 MEMB     66       DOPC     H12R     HAL2     0.900000E-01   1.00800           0
      9542 MEMB     66       DOPC     H12S     HAL2     0.900000E-01   1.00800           0
      9543 MEMB     66       DOPC     C213     CTL2    -0.180000       12.0110           0
      9544 MEMB     66       DOPC     H13R     HAL2     0.900000E-01   1.00800           0
      9545 MEMB     66       DOPC     H13S     HAL2     0.900000E-01   1.00800           0
      9546 MEMB     66       DOPC     C214     CTL2    -0.180000       12.0110           0
      9547 MEMB     66       DOPC     H14R     HAL2     0.900000E-01   1.00800           0
      9548 MEMB     66       DOPC     H14S     HAL2     0.900000E-01   1.00800           0
      9549 MEMB     66       DOPC     C215     CTL2    -0.180000       12.0110           0
      9550 MEMB     66       DOPC     H15R     HAL2     0.900000E-01   1.00800           0
      9551 MEMB     66       DOPC     H15S     HAL2     0.900000E-01   1.00800           0
      9552 MEMB     66       DOPC     C216     CTL2    -0.180000       12.0110           0
      9553 MEMB     66       DOPC     H16R     HAL2     0.900000E-01   1.00800           0
      9554 MEMB     66       DOPC     H16S     HAL2     0.900000E-01   1.00800           0
      9555 MEMB     66       DOPC     C217     CTL2    -0.180000       12.0110           0
      9556 MEMB     66       DOPC     H17R     HAL2     0.900000E-01   1.00800           0
      9557 MEMB     66       DOPC     H17S     HAL2     0.900000E-01   1.00800           0
      9558 MEMB     66       DOPC     C218     CTL3    -0.270000       12.0110           0
      9559 MEMB     66       DOPC     H18R     HAL3     0.900000E-01   1.00800           0
      9560 MEMB     66       DOPC     H18S     HAL3     0.900000E-01   1.00800           0
      9561 MEMB     66       DOPC     H18T     HAL3     0.900000E-01   1.00800           0
      9562 MEMB     66       DOPC     C33      CTL2    -0.180000       12.0110           0
      9563 MEMB     66       DOPC     H3X      HAL2     0.900000E-01   1.00800           0
      9564 MEMB     66       DOPC     H3Y      HAL2     0.900000E-01   1.00800           0
      9565 MEMB     66       DOPC     C34      CTL2    -0.180000       12.0110           0
      9566 MEMB     66       DOPC     H4X      HAL2     0.900000E-01   1.00800           0
      9567 MEMB     66       DOPC     H4Y      HAL2     0.900000E-01   1.00800           0
      9568 MEMB     66       DOPC     C35      CTL2    -0.180000       12.0110           0
      9569 MEMB     66       DOPC     H5X      HAL2     0.900000E-01   1.00800           0
      9570 MEMB     66       DOPC     H5Y      HAL2     0.900000E-01   1.00800           0
      9571 MEMB     66       DOPC     C36      CTL2    -0.180000       12.0110           0
      9572 MEMB     66       DOPC     H6X      HAL2     0.900000E-01   1.00800           0
      9573 MEMB     66       DOPC     H6Y      HAL2     0.900000E-01   1.00800           0
      9574 MEMB     66       DOPC     C37      CTL2    -0.180000       12.0110           0
      9575 MEMB     66       DOPC     H7X      HAL2     0.900000E-01   1.00800           0
      9576 MEMB     66       DOPC     H7Y      HAL2     0.900000E-01   1.00800           0
      9577 MEMB     66       DOPC     C38      CTL2    -0.180000       12.0110           0
      9578 MEMB     66       DOPC     H8X      HAL2     0.900000E-01   1.00800           0
      9579 MEMB     66       DOPC     H8Y      HAL2     0.900000E-01   1.00800           0
      9580 MEMB     66       DOPC     C39      CEL1    -0.150000       12.0110           0
      9581 MEMB     66       DOPC     H9X      HEL1     0.150000       1.00800           0
      9582 MEMB     66       DOPC     C310     CEL1    -0.150000       12.0110           0
      9583 MEMB     66       DOPC     H10X     HEL1     0.150000       1.00800           0
      9584 MEMB     66       DOPC     C311     CTL2    -0.180000       12.0110           0
      9585 MEMB     66       DOPC     H11X     HAL2     0.900000E-01   1.00800           0
      9586 MEMB     66       DOPC     H11Y     HAL2     0.900000E-01   1.00800           0
      9587 MEMB     66       DOPC     C312     CTL2    -0.180000       12.0110           0
      9588 MEMB     66       DOPC     H12X     HAL2     0.900000E-01   1.00800           0
      9589 MEMB     66       DOPC     H12Y     HAL2     0.900000E-01   1.00800           0
      9590 MEMB     66       DOPC     C313     CTL2    -0.180000       12.0110           0
      9591 MEMB     66       DOPC     H13X     HAL2     0.900000E-01   1.00800           0
      9592 MEMB     66       DOPC     H13Y     HAL2     0.900000E-01   1.00800           0
      9593 MEMB     66       DOPC     C314     CTL2    -0.180000       12.0110           0
      9594 MEMB     66       DOPC     H14X     HAL2     0.900000E-01   1.00800           0
      9595 MEMB     66       DOPC     H14Y     HAL2     0.900000E-01   1.00800           0
      9596 MEMB     66       DOPC     C315     CTL2    -0.180000       12.0110           0
      9597 MEMB     66       DOPC     H15X     HAL2     0.900000E-01   1.00800           0
      9598 MEMB     66       DOPC     H15Y     HAL2     0.900000E-01   1.00800           0
      9599 MEMB     66       DOPC     C316     CTL2    -0.180000       12.0110           0
      9600 MEMB     66       DOPC     H16X     HAL2     0.900000E-01   1.00800           0
      9601 MEMB     66       DOPC     H16Y     HAL2     0.900000E-01   1.00800           0
      9602 MEMB     66       DOPC     C317     CTL2    -0.180000       12.0110           0
      9603 MEMB     66       DOPC     H17X     HAL2     0.900000E-01   1.00800           0
      9604 MEMB     66       DOPC     H17Y     HAL2     0.900000E-01   1.00800           0
      9605 MEMB     66       DOPC     C318     CTL3    -0.270000       12.0110           0
      9606 MEMB     66       DOPC     H18X     HAL3     0.900000E-01   1.00800           0
      9607 MEMB     66       DOPC     H18Y     HAL3     0.900000E-01   1.00800           0
      9608 MEMB     66       DOPC     H18Z     HAL3     0.900000E-01   1.00800           0
      9609 MEMB     67       DOPC     N        NTL     -0.600000       14.0070           0
      9610 MEMB     67       DOPC     C12      CTL2    -0.100000       12.0110           0
      9611 MEMB     67       DOPC     H12A     HL       0.250000       1.00800           0
      9612 MEMB     67       DOPC     H12B     HL       0.250000       1.00800           0
      9613 MEMB     67       DOPC     C13      CTL5    -0.350000       12.0110           0
      9614 MEMB     67       DOPC     H13A     HL       0.250000       1.00800           0
      9615 MEMB     67       DOPC     H13B     HL       0.250000       1.00800           0
      9616 MEMB     67       DOPC     H13C     HL       0.250000       1.00800           0
      9617 MEMB     67       DOPC     C14      CTL5    -0.350000       12.0110           0
      9618 MEMB     67       DOPC     H14A     HL       0.250000       1.00800           0
      9619 MEMB     67       DOPC     H14B     HL       0.250000       1.00800           0
      9620 MEMB     67       DOPC     H14C     HL       0.250000       1.00800           0
      9621 MEMB     67       DOPC     C15      CTL5    -0.350000       12.0110           0
      9622 MEMB     67       DOPC     H15A     HL       0.250000       1.00800           0
      9623 MEMB     67       DOPC     H15B     HL       0.250000       1.00800           0
      9624 MEMB     67       DOPC     H15C     HL       0.250000       1.00800           0
      9625 MEMB     67       DOPC     C11      CTL2    -0.800000E-01   12.0110           0
      9626 MEMB     67       DOPC     H11A     HAL2     0.900000E-01   1.00800           0
      9627 MEMB     67       DOPC     H11B     HAL2     0.900000E-01   1.00800           0
      9628 MEMB     67       DOPC     P        PL        1.50000       30.9740           0
      9629 MEMB     67       DOPC     O13      O2L     -0.780000       15.9994           0
      9630 MEMB     67       DOPC     O14      O2L     -0.780000       15.9994           0
      9631 MEMB     67       DOPC     O12      OSLP    -0.570000       15.9994           0
      9632 MEMB     67       DOPC     O11      OSLP    -0.570000       15.9994           0
      9633 MEMB     67       DOPC     C1       CTL2    -0.800000E-01   12.0110           0
      9634 MEMB     67       DOPC     HA       HAL2     0.900000E-01   1.00800           0
      9635 MEMB     67       DOPC     HB       HAL2     0.900000E-01   1.00800           0
      9636 MEMB     67       DOPC     C2       CTL1     0.170000       12.0110           0
      9637 MEMB     67       DOPC     HS       HAL1     0.900000E-01   1.00800           0
      9638 MEMB     67       DOPC     O21      OSL     -0.490000       15.9994           0
      9639 MEMB     67       DOPC     C21      CL       0.900000       12.0110           0
      9640 MEMB     67       DOPC     O22      OBL     -0.630000       15.9994           0
      9641 MEMB     67       DOPC     C22      CTL2    -0.220000       12.0110           0
      9642 MEMB     67       DOPC     H2R      HAL2     0.900000E-01   1.00800           0
      9643 MEMB     67       DOPC     H2S      HAL2     0.900000E-01   1.00800           0
      9644 MEMB     67       DOPC     C3       CTL2     0.800000E-01   12.0110           0
      9645 MEMB     67       DOPC     HX       HAL2     0.900000E-01   1.00800           0
      9646 MEMB     67       DOPC     HY       HAL2     0.900000E-01   1.00800           0
      9647 MEMB     67       DOPC     O31      OSL     -0.490000       15.9994           0
      9648 MEMB     67       DOPC     C31      CL       0.900000       12.0110           0
      9649 MEMB     67       DOPC     O32      OBL     -0.630000       15.9994           0
      9650 MEMB     67       DOPC     C32      CTL2    -0.220000       12.0110           0
      9651 MEMB     67       DOPC     H2X      HAL2     0.900000E-01   1.00800           0
      9652 MEMB     67       DOPC     H2Y      HAL2     0.900000E-01   1.00800           0
      9653 MEMB     67       DOPC     C23      CTL2    -0.180000       12.0110           0
      9654 MEMB     67       DOPC     H3R      HAL2     0.900000E-01   1.00800           0
      9655 MEMB     67       DOPC     H3S      HAL2     0.900000E-01   1.00800           0
      9656 MEMB     67       DOPC     C24      CTL2    -0.180000       12.0110           0
      9657 MEMB     67       DOPC     H4R      HAL2     0.900000E-01   1.00800           0
      9658 MEMB     67       DOPC     H4S      HAL2     0.900000E-01   1.00800           0
      9659 MEMB     67       DOPC     C25      CTL2    -0.180000       12.0110           0
      9660 MEMB     67       DOPC     H5R      HAL2     0.900000E-01   1.00800           0
      9661 MEMB     67       DOPC     H5S      HAL2     0.900000E-01   1.00800           0
      9662 MEMB     67       DOPC     C26      CTL2    -0.180000       12.0110           0
      9663 MEMB     67       DOPC     H6R      HAL2     0.900000E-01   1.00800           0
      9664 MEMB     67       DOPC     H6S      HAL2     0.900000E-01   1.00800           0
      9665 MEMB     67       DOPC     C27      CTL2    -0.180000       12.0110           0
      9666 MEMB     67       DOPC     H7R      HAL2     0.900000E-01   1.00800           0
      9667 MEMB     67       DOPC     H7S      HAL2     0.900000E-01   1.00800           0
      9668 MEMB     67       DOPC     C28      CTL2    -0.180000       12.0110           0
      9669 MEMB     67       DOPC     H8R      HAL2     0.900000E-01   1.00800           0
      9670 MEMB     67       DOPC     H8S      HAL2     0.900000E-01   1.00800           0
      9671 MEMB     67       DOPC     C29      CEL1    -0.150000       12.0110           0
      9672 MEMB     67       DOPC     H9R      HEL1     0.150000       1.00800           0
      9673 MEMB     67       DOPC     C210     CEL1    -0.150000       12.0110           0
      9674 MEMB     67       DOPC     H10R     HEL1     0.150000       1.00800           0
      9675 MEMB     67       DOPC     C211     CTL2    -0.180000       12.0110           0
      9676 MEMB     67       DOPC     H11R     HAL2     0.900000E-01   1.00800           0
      9677 MEMB     67       DOPC     H11S     HAL2     0.900000E-01   1.00800           0
      9678 MEMB     67       DOPC     C212     CTL2    -0.180000       12.0110           0
      9679 MEMB     67       DOPC     H12R     HAL2     0.900000E-01   1.00800           0
      9680 MEMB     67       DOPC     H12S     HAL2     0.900000E-01   1.00800           0
      9681 MEMB     67       DOPC     C213     CTL2    -0.180000       12.0110           0
      9682 MEMB     67       DOPC     H13R     HAL2     0.900000E-01   1.00800           0
      9683 MEMB     67       DOPC     H13S     HAL2     0.900000E-01   1.00800           0
      9684 MEMB     67       DOPC     C214     CTL2    -0.180000       12.0110           0
      9685 MEMB     67       DOPC     H14R     HAL2     0.900000E-01   1.00800           0
      9686 MEMB     67       DOPC     H14S     HAL2     0.900000E-01   1.00800           0
      9687 MEMB     67       DOPC     C215     CTL2    -0.180000       12.0110           0
      9688 MEMB     67       DOPC     H15R     HAL2     0.900000E-01   1.00800           0
      9689 MEMB     67       DOPC     H15S     HAL2     0.900000E-01   1.00800           0
      9690 MEMB     67       DOPC     C216     CTL2    -0.180000       12.0110           0
      9691 MEMB     67       DOPC     H16R     HAL2     0.900000E-01   1.00800           0
      9692 MEMB     67       DOPC     H16S     HAL2     0.900000E-01   1.00800           0
      9693 MEMB     67       DOPC     C217     CTL2    -0.180000       12.0110           0
      9694 MEMB     67       DOPC     H17R     HAL2     0.900000E-01   1.00800           0
      9695 MEMB     67       DOPC     H17S     HAL2     0.900000E-01   1.00800           0
      9696 MEMB     67       DOPC     C218     CTL3    -0.270000       12.0110           0
      9697 MEMB     67       DOPC     H18R     HAL3     0.900000E-01   1.00800           0
      9698 MEMB     67       DOPC     H18S     HAL3     0.900000E-01   1.00800           0
      9699 MEMB     67       DOPC     H18T     HAL3     0.900000E-01   1.00800           0
      9700 MEMB     67       DOPC     C33      CTL2    -0.180000       12.0110           0
      9701 MEMB     67       DOPC     H3X      HAL2     0.900000E-01   1.00800           0
      9702 MEMB     67       DOPC     H3Y      HAL2     0.900000E-01   1.00800           0
      9703 MEMB     67       DOPC     C34      CTL2    -0.180000       12.0110           0
      9704 MEMB     67       DOPC     H4X      HAL2     0.900000E-01   1.00800           0
      9705 MEMB     67       DOPC     H4Y      HAL2     0.900000E-01   1.00800           0
      9706 MEMB     67       DOPC     C35      CTL2    -0.180000       12.0110           0
      9707 MEMB     67       DOPC     H5X      HAL2     0.900000E-01   1.00800           0
      9708 MEMB     67       DOPC     H5Y      HAL2     0.900000E-01   1.00800           0
      9709 MEMB     67       DOPC     C36      CTL2    -0.180000       12.0110           0
      9710 MEMB     67       DOPC     H6X      HAL2     0.900000E-01   1.00800           0
      9711 MEMB     67       DOPC     H6Y      HAL2     0.900000E-01   1.00800           0
      9712 MEMB     67       DOPC     C37      CTL2    -0.180000       12.0110           0
      9713 MEMB     67       DOPC     H7X      HAL2     0.900000E-01   1.00800           0
      9714 MEMB     67       DOPC     H7Y      HAL2     0.900000E-01   1.00800           0
      9715 MEMB     67       DOPC     C38      CTL2    -0.180000       12.0110           0
      9716 MEMB     67       DOPC     H8X      HAL2     0.900000E-01   1.00800           0
      9717 MEMB     67       DOPC     H8Y      HAL2     0.900000E-01   1.00800           0
      9718 MEMB     67       DOPC     C39      CEL1    -0.150000       12.0110           0
      9719 MEMB     67       DOPC     H9X      HEL1     0.150000       1.00800           0
      9720 MEMB     67       DOPC     C310     CEL1    -0.150000       12.0110           0
      9721 MEMB     67       DOPC     H10X     HEL1     0.150000       1.00800           0
      9722 MEMB     67       DOPC     C311     CTL2    -0.180000       12.0110           0
      9723 MEMB     67       DOPC     H11X     HAL2     0.900000E-01   1.00800           0
      9724 MEMB     67       DOPC     H11Y     HAL2     0.900000E-01   1.00800           0
      9725 MEMB     67       DOPC     C312     CTL2    -0.180000       12.0110           0
      9726 MEMB     67       DOPC     H12X     HAL2     0.900000E-01   1.00800           0
      9727 MEMB     67       DOPC     H12Y     HAL2     0.900000E-01   1.00800           0
      9728 MEMB     67       DOPC     C313     CTL2    -0.180000       12.0110           0
      9729 MEMB     67       DOPC     H13X     HAL2     0.900000E-01   1.00800           0
      9730 MEMB     67       DOPC     H13Y     HAL2     0.900000E-01   1.00800           0
      9731 MEMB     67       DOPC     C314     CTL2    -0.180000       12.0110           0
      9732 MEMB     67       DOPC     H14X     HAL2     0.900000E-01   1.00800           0
      9733 MEMB     67       DOPC     H14Y     HAL2     0.900000E-01   1.00800           0
      9734 MEMB     67       DOPC     C315     CTL2    -0.180000       12.0110           0
      9735 MEMB     67       DOPC     H15X     HAL2     0.900000E-01   1.00800           0
      9736 MEMB     67       DOPC     H15Y     HAL2     0.900000E-01   1.00800           0
      9737 MEMB     67       DOPC     C316     CTL2    -0.180000       12.0110           0
      9738 MEMB     67       DOPC     H16X     HAL2     0.900000E-01   1.00800           0
      9739 MEMB     67       DOPC     H16Y     HAL2     0.900000E-01   1.00800           0
      9740 MEMB     67       DOPC     C317     CTL2    -0.180000       12.0110           0
      9741 MEMB     67       DOPC     H17X     HAL2     0.900000E-01   1.00800           0
      9742 MEMB     67       DOPC     H17Y     HAL2     0.900000E-01   1.00800           0
      9743 MEMB     67       DOPC     C318     CTL3    -0.270000       12.0110           0
      9744 MEMB     67       DOPC     H18X     HAL3     0.900000E-01   1.00800           0
      9745 MEMB     67       DOPC     H18Y     HAL3     0.900000E-01   1.00800           0
      9746 MEMB     67       DOPC     H18Z     HAL3     0.900000E-01   1.00800           0
      9747 MEMB     68       DOPC     N        NTL     -0.600000       14.0070           0
      9748 MEMB     68       DOPC     C12      CTL2    -0.100000       12.0110           0
      9749 MEMB     68       DOPC     H12A     HL       0.250000       1.00800           0
      9750 MEMB     68       DOPC     H12B     HL       0.250000       1.00800           0
      9751 MEMB     68       DOPC     C13      CTL5    -0.350000       12.0110           0
      9752 MEMB     68       DOPC     H13A     HL       0.250000       1.00800           0
      9753 MEMB     68       DOPC     H13B     HL       0.250000       1.00800           0
      9754 MEMB     68       DOPC     H13C     HL       0.250000       1.00800           0
      9755 MEMB     68       DOPC     C14      CTL5    -0.350000       12.0110           0
      9756 MEMB     68       DOPC     H14A     HL       0.250000       1.00800           0
      9757 MEMB     68       DOPC     H14B     HL       0.250000       1.00800           0
      9758 MEMB     68       DOPC     H14C     HL       0.250000       1.00800           0
      9759 MEMB     68       DOPC     C15      CTL5    -0.350000       12.0110           0
      9760 MEMB     68       DOPC     H15A     HL       0.250000       1.00800           0
      9761 MEMB     68       DOPC     H15B     HL       0.250000       1.00800           0
      9762 MEMB     68       DOPC     H15C     HL       0.250000       1.00800           0
      9763 MEMB     68       DOPC     C11      CTL2    -0.800000E-01   12.0110           0
      9764 MEMB     68       DOPC     H11A     HAL2     0.900000E-01   1.00800           0
      9765 MEMB     68       DOPC     H11B     HAL2     0.900000E-01   1.00800           0
      9766 MEMB     68       DOPC     P        PL        1.50000       30.9740           0
      9767 MEMB     68       DOPC     O13      O2L     -0.780000       15.9994           0
      9768 MEMB     68       DOPC     O14      O2L     -0.780000       15.9994           0
      9769 MEMB     68       DOPC     O12      OSLP    -0.570000       15.9994           0
      9770 MEMB     68       DOPC     O11      OSLP    -0.570000       15.9994           0
      9771 MEMB     68       DOPC     C1       CTL2    -0.800000E-01   12.0110           0
      9772 MEMB     68       DOPC     HA       HAL2     0.900000E-01   1.00800           0
      9773 MEMB     68       DOPC     HB       HAL2     0.900000E-01   1.00800           0
      9774 MEMB     68       DOPC     C2       CTL1     0.170000       12.0110           0
      9775 MEMB     68       DOPC     HS       HAL1     0.900000E-01   1.00800           0
      9776 MEMB     68       DOPC     O21      OSL     -0.490000       15.9994           0
      9777 MEMB     68       DOPC     C21      CL       0.900000       12.0110           0
      9778 MEMB     68       DOPC     O22      OBL     -0.630000       15.9994           0
      9779 MEMB     68       DOPC     C22      CTL2    -0.220000       12.0110           0
      9780 MEMB     68       DOPC     H2R      HAL2     0.900000E-01   1.00800           0
      9781 MEMB     68       DOPC     H2S      HAL2     0.900000E-01   1.00800           0
      9782 MEMB     68       DOPC     C3       CTL2     0.800000E-01   12.0110           0
      9783 MEMB     68       DOPC     HX       HAL2     0.900000E-01   1.00800           0
      9784 MEMB     68       DOPC     HY       HAL2     0.900000E-01   1.00800           0
      9785 MEMB     68       DOPC     O31      OSL     -0.490000       15.9994           0
      9786 MEMB     68       DOPC     C31      CL       0.900000       12.0110           0
      9787 MEMB     68       DOPC     O32      OBL     -0.630000       15.9994           0
      9788 MEMB     68       DOPC     C32      CTL2    -0.220000       12.0110           0
      9789 MEMB     68       DOPC     H2X      HAL2     0.900000E-01   1.00800           0
      9790 MEMB     68       DOPC     H2Y      HAL2     0.900000E-01   1.00800           0
      9791 MEMB     68       DOPC     C23      CTL2    -0.180000       12.0110           0
      9792 MEMB     68       DOPC     H3R      HAL2     0.900000E-01   1.00800           0
      9793 MEMB     68       DOPC     H3S      HAL2     0.900000E-01   1.00800           0
      9794 MEMB     68       DOPC     C24      CTL2    -0.180000       12.0110           0
      9795 MEMB     68       DOPC     H4R      HAL2     0.900000E-01   1.00800           0
      9796 MEMB     68       DOPC     H4S      HAL2     0.900000E-01   1.00800           0
      9797 MEMB     68       DOPC     C25      CTL2    -0.180000       12.0110           0
      9798 MEMB     68       DOPC     H5R      HAL2     0.900000E-01   1.00800           0
      9799 MEMB     68       DOPC     H5S      HAL2     0.900000E-01   1.00800           0
      9800 MEMB     68       DOPC     C26      CTL2    -0.180000       12.0110           0
      9801 MEMB     68       DOPC     H6R      HAL2     0.900000E-01   1.00800           0
      9802 MEMB     68       DOPC     H6S      HAL2     0.900000E-01   1.00800           0
      9803 MEMB     68       DOPC     C27      CTL2    -0.180000       12.0110           0
      9804 MEMB     68       DOPC     H7R      HAL2     0.900000E-01   1.00800           0
      9805 MEMB     68       DOPC     H7S      HAL2     0.900000E-01   1.00800           0
      9806 MEMB     68       DOPC     C28      CTL2    -0.180000       12.0110           0
      9807 MEMB     68       DOPC     H8R      HAL2     0.900000E-01   1.00800           0
      9808 MEMB     68       DOPC     H8S      HAL2     0.900000E-01   1.00800           0
      9809 MEMB     68       DOPC     C29      CEL1    -0.150000       12.0110           0
      9810 MEMB     68       DOPC     H9R      HEL1     0.150000       1.00800           0
      9811 MEMB     68       DOPC     C210     CEL1    -0.150000       12.0110           0
      9812 MEMB     68       DOPC     H10R     HEL1     0.150000       1.00800           0
      9813 MEMB     68       DOPC     C211     CTL2    -0.180000       12.0110           0
      9814 MEMB     68       DOPC     H11R     HAL2     0.900000E-01   1.00800           0
      9815 MEMB     68       DOPC     H11S     HAL2     0.900000E-01   1.00800           0
      9816 MEMB     68       DOPC     C212     CTL2    -0.180000       12.0110           0
      9817 MEMB     68       DOPC     H12R     HAL2     0.900000E-01   1.00800           0
      9818 MEMB     68       DOPC     H12S     HAL2     0.900000E-01   1.00800           0
      9819 MEMB     68       DOPC     C213     CTL2    -0.180000       12.0110           0
      9820 MEMB     68       DOPC     H13R     HAL2     0.900000E-01   1.00800           0
      9821 MEMB     68       DOPC     H13S     HAL2     0.900000E-01   1.00800           0
      9822 MEMB     68       DOPC     C214     CTL2    -0.180000       12.0110           0
      9823 MEMB     68       DOPC     H14R     HAL2     0.900000E-01   1.00800           0
      9824 MEMB     68       DOPC     H14S     HAL2     0.900000E-01   1.00800           0
      9825 MEMB     68       DOPC     C215     CTL2    -0.180000       12.0110           0
      9826 MEMB     68       DOPC     H15R     HAL2     0.900000E-01   1.00800           0
      9827 MEMB     68       DOPC     H15S     HAL2     0.900000E-01   1.00800           0
      9828 MEMB     68       DOPC     C216     CTL2    -0.180000       12.0110           0
      9829 MEMB     68       DOPC     H16R     HAL2     0.900000E-01   1.00800           0
      9830 MEMB     68       DOPC     H16S     HAL2     0.900000E-01   1.00800           0
      9831 MEMB     68       DOPC     C217     CTL2    -0.180000       12.0110           0
      9832 MEMB     68       DOPC     H17R     HAL2     0.900000E-01   1.00800           0
      9833 MEMB     68       DOPC     H17S     HAL2     0.900000E-01   1.00800           0
      9834 MEMB     68       DOPC     C218     CTL3    -0.270000       12.0110           0
      9835 MEMB     68       DOPC     H18R     HAL3     0.900000E-01   1.00800           0
      9836 MEMB     68       DOPC     H18S     HAL3     0.900000E-01   1.00800           0
      9837 MEMB     68       DOPC     H18T     HAL3     0.900000E-01   1.00800           0
      9838 MEMB     68       DOPC     C33      CTL2    -0.180000       12.0110           0
      9839 MEMB     68       DOPC     H3X      HAL2     0.900000E-01   1.00800           0
      9840 MEMB     68       DOPC     H3Y      HAL2     0.900000E-01   1.00800           0
      9841 MEMB     68       DOPC     C34      CTL2    -0.180000       12.0110           0
      9842 MEMB     68       DOPC     H4X      HAL2     0.900000E-01   1.00800           0
      9843 MEMB     68       DOPC     H4Y      HAL2     0.900000E-01   1.00800           0
      9844 MEMB     68       DOPC     C35      CTL2    -0.180000       12.0110           0
      9845 MEMB     68       DOPC     H5X      HAL2     0.900000E-01   1.00800           0
      9846 MEMB     68       DOPC     H5Y      HAL2     0.900000E-01   1.00800           0
      9847 MEMB     68       DOPC     C36      CTL2    -0.180000       12.0110           0
      9848 MEMB     68       DOPC     H6X      HAL2     0.900000E-01   1.00800           0
      9849 MEMB     68       DOPC     H6Y      HAL2     0.900000E-01   1.00800           0
      9850 MEMB     68       DOPC     C37      CTL2    -0.180000       12.0110           0
      9851 MEMB     68       DOPC     H7X      HAL2     0.900000E-01   1.00800           0
      9852 MEMB     68       DOPC     H7Y      HAL2     0.900000E-01   1.00800           0
      9853 MEMB     68       DOPC     C38      CTL2    -0.180000       12.0110           0
      9854 MEMB     68       DOPC     H8X      HAL2     0.900000E-01   1.00800           0
      9855 MEMB     68       DOPC     H8Y      HAL2     0.900000E-01   1.00800           0
      9856 MEMB     68       DOPC     C39      CEL1    -0.150000       12.0110           0
      9857 MEMB     68       DOPC     H9X      HEL1     0.150000       1.00800           0
      9858 MEMB     68       DOPC     C310     CEL1    -0.150000       12.0110           0
      9859 MEMB     68       DOPC     H10X     HEL1     0.150000       1.00800           0
      9860 MEMB     68       DOPC     C311     CTL2    -0.180000       12.0110           0
      9861 MEMB     68       DOPC     H11X     HAL2     0.900000E-01   1.00800           0
      9862 MEMB     68       DOPC     H11Y     HAL2     0.900000E-01   1.00800           0
      9863 MEMB     68       DOPC     C312     CTL2    -0.180000       12.0110           0
      9864 MEMB     68       DOPC     H12X     HAL2     0.900000E-01   1.00800           0
      9865 MEMB     68       DOPC     H12Y     HAL2     0.900000E-01   1.00800           0
      9866 MEMB     68       DOPC     C313     CTL2    -0.180000       12.0110           0
      9867 MEMB     68       DOPC     H13X     HAL2     0.900000E-01   1.00800           0
      9868 MEMB     68       DOPC     H13Y     HAL2     0.900000E-01   1.00800           0
      9869 MEMB     68       DOPC     C314     CTL2    -0.180000       12.0110           0
      9870 MEMB     68       DOPC     H14X     HAL2     0.900000E-01   1.00800           0
      9871 MEMB     68       DOPC     H14Y     HAL2     0.900000E-01   1.00800           0
      9872 MEMB     68       DOPC     C315     CTL2    -0.180000       12.0110           0
      9873 MEMB     68       DOPC     H15X     HAL2     0.900000E-01   1.00800           0
      9874 MEMB     68       DOPC     H15Y     HAL2     0.900000E-01   1.00800           0
      9875 MEMB     68       DOPC     C316     CTL2    -0.180000       12.0110           0
      9876 MEMB     68       DOPC     H16X     HAL2     0.900000E-01   1.00800           0
      9877 MEMB     68       DOPC     H16Y     HAL2     0.900000E-01   1.00800           0
      9878 MEMB     68       DOPC     C317     CTL2    -0.180000       12.0110           0
      9879 MEMB     68       DOPC     H17X     HAL2     0.900000E-01   1.00800           0
      9880 MEMB     68       DOPC     H17Y     HAL2     0.900000E-01   1.00800           0
      9881 MEMB     68       DOPC     C318     CTL3    -0.270000       12.0110           0
      9882 MEMB     68       DOPC     H18X     HAL3     0.900000E-01   1.00800           0
      9883 MEMB     68       DOPC     H18Y     HAL3     0.900000E-01   1.00800           0
      9884 MEMB     68       DOPC     H18Z     HAL3     0.900000E-01   1.00800           0
      9885 MEMB     69       DOPC     N        NTL     -0.600000       14.0070           0
      9886 MEMB     69       DOPC     C12      CTL2    -0.100000       12.0110           0
      9887 MEMB     69       DOPC     H12A     HL       0.250000       1.00800           0
      9888 MEMB     69       DOPC     H12B     HL       0.250000       1.00800           0
      9889 MEMB     69       DOPC     C13      CTL5    -0.350000       12.0110           0
      9890 MEMB     69       DOPC     H13A     HL       0.250000       1.00800           0
      9891 MEMB     69       DOPC     H13B     HL       0.250000       1.00800           0
      9892 MEMB     69       DOPC     H13C     HL       0.250000       1.00800           0
      9893 MEMB     69       DOPC     C14      CTL5    -0.350000       12.0110           0
      9894 MEMB     69       DOPC     H14A     HL       0.250000       1.00800           0
      9895 MEMB     69       DOPC     H14B     HL       0.250000       1.00800           0
      9896 MEMB     69       DOPC     H14C     HL       0.250000       1.00800           0
      9897 MEMB     69       DOPC     C15      CTL5    -0.350000       12.0110           0
      9898 MEMB     69       DOPC     H15A     HL       0.250000       1.00800           0
      9899 MEMB     69       DOPC     H15B     HL       0.250000       1.00800           0
      9900 MEMB     69       DOPC     H15C     HL       0.250000       1.00800           0
      9901 MEMB     69       DOPC     C11      CTL2    -0.800000E-01   12.0110           0
      9902 MEMB     69       DOPC     H11A     HAL2     0.900000E-01   1.00800           0
      9903 MEMB     69       DOPC     H11B     HAL2     0.900000E-01   1.00800           0
      9904 MEMB     69       DOPC     P        PL        1.50000       30.9740           0
      9905 MEMB     69       DOPC     O13      O2L     -0.780000       15.9994           0
      9906 MEMB     69       DOPC     O14      O2L     -0.780000       15.9994           0
      9907 MEMB     69       DOPC     O12      OSLP    -0.570000       15.9994           0
      9908 MEMB     69       DOPC     O11      OSLP    -0.570000       15.9994           0
      9909 MEMB     69       DOPC     C1       CTL2    -0.800000E-01   12.0110           0
      9910 MEMB     69       DOPC     HA       HAL2     0.900000E-01   1.00800           0
      9911 MEMB     69       DOPC     HB       HAL2     0.900000E-01   1.00800           0
      9912 MEMB     69       DOPC     C2       CTL1     0.170000       12.0110           0
      9913 MEMB     69       DOPC     HS       HAL1     0.900000E-01   1.00800           0
      9914 MEMB     69       DOPC     O21      OSL     -0.490000       15.9994           0
      9915 MEMB     69       DOPC     C21      CL       0.900000       12.0110           0
      9916 MEMB     69       DOPC     O22      OBL     -0.630000       15.9994           0
      9917 MEMB     69       DOPC     C22      CTL2    -0.220000       12.0110           0
      9918 MEMB     69       DOPC     H2R      HAL2     0.900000E-01   1.00800           0
      9919 MEMB     69       DOPC     H2S      HAL2     0.900000E-01   1.00800           0
      9920 MEMB     69       DOPC     C3       CTL2     0.800000E-01   12.0110           0
      9921 MEMB     69       DOPC     HX       HAL2     0.900000E-01   1.00800           0
      9922 MEMB     69       DOPC     HY       HAL2     0.900000E-01   1.00800           0
      9923 MEMB     69       DOPC     O31      OSL     -0.490000       15.9994           0
      9924 MEMB     69       DOPC     C31      CL       0.900000       12.0110           0
      9925 MEMB     69       DOPC     O32      OBL     -0.630000       15.9994           0
      9926 MEMB     69       DOPC     C32      CTL2    -0.220000       12.0110           0
      9927 MEMB     69       DOPC     H2X      HAL2     0.900000E-01   1.00800           0
      9928 MEMB     69       DOPC     H2Y      HAL2     0.900000E-01   1.00800           0
      9929 MEMB     69       DOPC     C23      CTL2    -0.180000       12.0110           0
      9930 MEMB     69       DOPC     H3R      HAL2     0.900000E-01   1.00800           0
      9931 MEMB     69       DOPC     H3S      HAL2     0.900000E-01   1.00800           0
      9932 MEMB     69       DOPC     C24      CTL2    -0.180000       12.0110           0
      9933 MEMB     69       DOPC     H4R      HAL2     0.900000E-01   1.00800           0
      9934 MEMB     69       DOPC     H4S      HAL2     0.900000E-01   1.00800           0
      9935 MEMB     69       DOPC     C25      CTL2    -0.180000       12.0110           0
      9936 MEMB     69       DOPC     H5R      HAL2     0.900000E-01   1.00800           0
      9937 MEMB     69       DOPC     H5S      HAL2     0.900000E-01   1.00800           0
      9938 MEMB     69       DOPC     C26      CTL2    -0.180000       12.0110           0
      9939 MEMB     69       DOPC     H6R      HAL2     0.900000E-01   1.00800           0
      9940 MEMB     69       DOPC     H6S      HAL2     0.900000E-01   1.00800           0
      9941 MEMB     69       DOPC     C27      CTL2    -0.180000       12.0110           0
      9942 MEMB     69       DOPC     H7R      HAL2     0.900000E-01   1.00800           0
      9943 MEMB     69       DOPC     H7S      HAL2     0.900000E-01   1.00800           0
      9944 MEMB     69       DOPC     C28      CTL2    -0.180000       12.0110           0
      9945 MEMB     69       DOPC     H8R      HAL2     0.900000E-01   1.00800           0
      9946 MEMB     69       DOPC     H8S      HAL2     0.900000E-01   1.00800           0
      9947 MEMB     69       DOPC     C29      CEL1    -0.150000       12.0110           0
      9948 MEMB     69       DOPC     H9R      HEL1     0.150000       1.00800           0
      9949 MEMB     69       DOPC     C210     CEL1    -0.150000       12.0110           0
      9950 MEMB     69       DOPC     H10R     HEL1     0.150000       1.00800           0
      9951 MEMB     69       DOPC     C211     CTL2    -0.180000       12.0110           0
      9952 MEMB     69       DOPC     H11R     HAL2     0.900000E-01   1.00800           0
      9953 MEMB     69       DOPC     H11S     HAL2     0.900000E-01   1.00800           0
      9954 MEMB     69       DOPC     C212     CTL2    -0.180000       12.0110           0
      9955 MEMB     69       DOPC     H12R     HAL2     0.900000E-01   1.00800           0
      9956 MEMB     69       DOPC     H12S     HAL2     0.900000E-01   1.00800           0
      9957 MEMB     69       DOPC     C213     CTL2    -0.180000       12.0110           0
      9958 MEMB     69       DOPC     H13R     HAL2     0.900000E-01   1.00800           0
      9959 MEMB     69       DOPC     H13S     HAL2     0.900000E-01   1.00800           0
      9960 MEMB     69       DOPC     C214     CTL2    -0.180000       12.0110           0
      9961 MEMB     69       DOPC     H14R     HAL2     0.900000E-01   1.00800           0
      9962 MEMB     69       DOPC     H14S     HAL2     0.900000E-01   1.00800           0
      9963 MEMB     69       DOPC     C215     CTL2    -0.180000       12.0110           0
      9964 MEMB     69       DOPC     H15R     HAL2     0.900000E-01   1.00800           0
      9965 MEMB     69       DOPC     H15S     HAL2     0.900000E-01   1.00800           0
      9966 MEMB     69       DOPC     C216     CTL2    -0.180000       12.0110           0
      9967 MEMB     69       DOPC     H16R     HAL2     0.900000E-01   1.00800           0
      9968 MEMB     69       DOPC     H16S     HAL2     0.900000E-01   1.00800           0
      9969 MEMB     69       DOPC     C217     CTL2    -0.180000       12.0110           0
      9970 MEMB     69       DOPC     H17R     HAL2     0.900000E-01   1.00800           0
      9971 MEMB     69       DOPC     H17S     HAL2     0.900000E-01   1.00800           0
      9972 MEMB     69       DOPC     C218     CTL3    -0.270000       12.0110           0
      9973 MEMB     69       DOPC     H18R     HAL3     0.900000E-01   1.00800           0
      9974 MEMB     69       DOPC     H18S     HAL3     0.900000E-01   1.00800           0
      9975 MEMB     69       DOPC     H18T     HAL3     0.900000E-01   1.00800           0
      9976 MEMB     69       DOPC     C33      CTL2    -0.180000       12.0110           0
      9977 MEMB     69       DOPC     H3X      HAL2     0.900000E-01   1.00800           0
      9978 MEMB     69       DOPC     H3Y      HAL2     0.900000E-01   1.00800           0
      9979 MEMB     69       DOPC     C34      CTL2    -0.180000       12.0110           0
      9980 MEMB     69       DOPC     H4X      HAL2     0.900000E-01   1.00800           0
      9981 MEMB     69       DOPC     H4Y      HAL2     0.900000E-01   1.00800           0
      9982 MEMB     69       DOPC     C35      CTL2    -0.180000       12.0110           0
      9983 MEMB     69       DOPC     H5X      HAL2     0.900000E-01   1.00800           0
      9984 MEMB     69       DOPC     H5Y      HAL2     0.900000E-01   1.00800           0
      9985 MEMB     69       DOPC     C36      CTL2    -0.180000       12.0110           0
      9986 MEMB     69       DOPC     H6X      HAL2     0.900000E-01   1.00800           0
      9987 MEMB     69       DOPC     H6Y      HAL2     0.900000E-01   1.00800           0
      9988 MEMB     69       DOPC     C37      CTL2    -0.180000       12.0110           0
      9989 MEMB     69       DOPC     H7X      HAL2     0.900000E-01   1.00800           0
      9990 MEMB     69       DOPC     H7Y      HAL2     0.900000E-01   1.00800           0
      9991 MEMB     69       DOPC     C38      CTL2    -0.180000       12.0110           0
      9992 MEMB     69       DOPC     H8X      HAL2     0.900000E-01   1.00800           0
      9993 MEMB     69       DOPC     H8Y      HAL2     0.900000E-01   1.00800           0
      9994 MEMB     69       DOPC     C39      CEL1    -0.150000       12.0110           0
      9995 MEMB     69       DOPC     H9X      HEL1     0.150000       1.00800           0
      9996 MEMB     69       DOPC     C310     CEL1    -0.150000       12.0110           0
      9997 MEMB     69       DOPC     H10X     HEL1     0.150000       1.00800           0
      9998 MEMB     69       DOPC     C311     CTL2    -0.180000       12.0110           0
      9999 MEMB     69       DOPC     H11X     HAL2     0.900000E-01   1.00800           0
     10000 MEMB     69       DOPC     H11Y     HAL2     0.900000E-01   1.00800           0
     10001 MEMB     69       DOPC     C312     CTL2    -0.180000       12.0110           0
     10002 MEMB     69       DOPC     H12X     HAL2     0.900000E-01   1.00800           0
     10003 MEMB     69       DOPC     H12Y     HAL2     0.900000E-01   1.00800           0
     10004 MEMB     69       DOPC     C313     CTL2    -0.180000       12.0110           0
     10005 MEMB     69       DOPC     H13X     HAL2     0.900000E-01   1.00800           0
     10006 MEMB     69       DOPC     H13Y     HAL2     0.900000E-01   1.00800           0
     10007 MEMB     69       DOPC     C314     CTL2    -0.180000       12.0110           0
     10008 MEMB     69       DOPC     H14X     HAL2     0.900000E-01   1.00800           0
     10009 MEMB     69       DOPC     H14Y     HAL2     0.900000E-01   1.00800           0
     10010 MEMB     69       DOPC     C315     CTL2    -0.180000       12.0110           0
     10011 MEMB     69       DOPC     H15X     HAL2     0.900000E-01   1.00800           0
     10012 MEMB     69       DOPC     H15Y     HAL2     0.900000E-01   1.00800           0
     10013 MEMB     69       DOPC     C316     CTL2    -0.180000       12.0110           0
     10014 MEMB     69       DOPC     H16X     HAL2     0.900000E-01   1.00800           0
     10015 MEMB     69       DOPC     H16Y     HAL2     0.900000E-01   1.00800           0
     10016 MEMB     69       DOPC     C317     CTL2    -0.180000       12.0110           0
     10017 MEMB     69       DOPC     H17X     HAL2     0.900000E-01   1.00800           0
     10018 MEMB     69       DOPC     H17Y     HAL2     0.900000E-01   1.00800           0
     10019 MEMB     69       DOPC     C318     CTL3    -0.270000       12.0110           0
     10020 MEMB     69       DOPC     H18X     HAL3     0.900000E-01   1.00800           0
     10021 MEMB     69       DOPC     H18Y     HAL3     0.900000E-01   1.00800           0
     10022 MEMB     69       DOPC     H18Z     HAL3     0.900000E-01   1.00800           0
     10023 MEMB     70       DOPC     N        NTL     -0.600000       14.0070           0
     10024 MEMB     70       DOPC     C12      CTL2    -0.100000       12.0110           0
     10025 MEMB     70       DOPC     H12A     HL       0.250000       1.00800           0
     10026 MEMB     70       DOPC     H12B     HL       0.250000       1.00800           0
     10027 MEMB     70       DOPC     C13      CTL5    -0.350000       12.0110           0
     10028 MEMB     70       DOPC     H13A     HL       0.250000       1.00800           0
     10029 MEMB     70       DOPC     H13B     HL       0.250000       1.00800           0
     10030 MEMB     70       DOPC     H13C     HL       0.250000       1.00800           0
     10031 MEMB     70       DOPC     C14      CTL5    -0.350000       12.0110           0
     10032 MEMB     70       DOPC     H14A     HL       0.250000       1.00800           0
     10033 MEMB     70       DOPC     H14B     HL       0.250000       1.00800           0
     10034 MEMB     70       DOPC     H14C     HL       0.250000       1.00800           0
     10035 MEMB     70       DOPC     C15      CTL5    -0.350000       12.0110           0
     10036 MEMB     70       DOPC     H15A     HL       0.250000       1.00800           0
     10037 MEMB     70       DOPC     H15B     HL       0.250000       1.00800           0
     10038 MEMB     70       DOPC     H15C     HL       0.250000       1.00800           0
     10039 MEMB     70       DOPC     C11      CTL2    -0.800000E-01   12.0110           0
     10040 MEMB     70       DOPC     H11A     HAL2     0.900000E-01   1.00800           0
     10041 MEMB     70       DOPC     H11B     HAL2     0.900000E-01   1.00800           0
     10042 MEMB     70       DOPC     P        PL        1.50000       30.9740           0
     10043 MEMB     70       DOPC     O13      O2L     -0.780000       15.9994           0
     10044 MEMB     70       DOPC     O14      O2L     -0.780000       15.9994           0
     10045 MEMB     70       DOPC     O12      OSLP    -0.570000       15.9994           0
     10046 MEMB     70       DOPC     O11      OSLP    -0.570000       15.9994           0
     10047 MEMB     70       DOPC     C1       CTL2    -0.800000E-01   12.0110           0
     10048 MEMB     70       DOPC     HA       HAL2     0.900000E-01   1.00800           0
     10049 MEMB     70       DOPC     HB       HAL2     0.900000E-01   1.00800           0
     10050 MEMB     70       DOPC     C2       CTL1     0.170000       12.0110           0
     10051 MEMB     70       DOPC     HS       HAL1     0.900000E-01   1.00800           0
     10052 MEMB     70       DOPC     O21      OSL     -0.490000       15.9994           0
     10053 MEMB     70       DOPC     C21      CL       0.900000       12.0110           0
     10054 MEMB     70       DOPC     O22      OBL     -0.630000       15.9994           0
     10055 MEMB     70       DOPC     C22      CTL2    -0.220000       12.0110           0
     10056 MEMB     70       DOPC     H2R      HAL2     0.900000E-01   1.00800           0
     10057 MEMB     70       DOPC     H2S      HAL2     0.900000E-01   1.00800           0
     10058 MEMB     70       DOPC     C3       CTL2     0.800000E-01   12.0110           0
     10059 MEMB     70       DOPC     HX       HAL2     0.900000E-01   1.00800           0
     10060 MEMB     70       DOPC     HY       HAL2     0.900000E-01   1.00800           0
     10061 MEMB     70       DOPC     O31      OSL     -0.490000       15.9994           0
     10062 MEMB     70       DOPC     C31      CL       0.900000       12.0110           0
     10063 MEMB     70       DOPC     O32      OBL     -0.630000       15.9994           0
     10064 MEMB     70       DOPC     C32      CTL2    -0.220000       12.0110           0
     10065 MEMB     70       DOPC     H2X      HAL2     0.900000E-01   1.00800           0
     10066 MEMB     70       DOPC     H2Y      HAL2     0.900000E-01   1.00800           0
     10067 MEMB     70       DOPC     C23      CTL2    -0.180000       12.0110           0
     10068 MEMB     70       DOPC     H3R      HAL2     0.900000E-01   1.00800           0
     10069 MEMB     70       DOPC     H3S      HAL2     0.900000E-01   1.00800           0
     10070 MEMB     70       DOPC     C24      CTL2    -0.180000       12.0110           0
     10071 MEMB     70       DOPC     H4R      HAL2     0.900000E-01   1.00800           0
     10072 MEMB     70       DOPC     H4S      HAL2     0.900000E-01   1.00800           0
     10073 MEMB     70       DOPC     C25      CTL2    -0.180000       12.0110           0
     10074 MEMB     70       DOPC     H5R      HAL2     0.900000E-01   1.00800           0
     10075 MEMB     70       DOPC     H5S      HAL2     0.900000E-01   1.00800           0
     10076 MEMB     70       DOPC     C26      CTL2    -0.180000       12.0110           0
     10077 MEMB     70       DOPC     H6R      HAL2     0.900000E-01   1.00800           0
     10078 MEMB     70       DOPC     H6S      HAL2     0.900000E-01   1.00800           0
     10079 MEMB     70       DOPC     C27      CTL2    -0.180000       12.0110           0
     10080 MEMB     70       DOPC     H7R      HAL2     0.900000E-01   1.00800           0
     10081 MEMB     70       DOPC     H7S      HAL2     0.900000E-01   1.00800           0
     10082 MEMB     70       DOPC     C28      CTL2    -0.180000       12.0110           0
     10083 MEMB     70       DOPC     H8R      HAL2     0.900000E-01   1.00800           0
     10084 MEMB     70       DOPC     H8S      HAL2     0.900000E-01   1.00800           0
     10085 MEMB     70       DOPC     C29      CEL1    -0.150000       12.0110           0
     10086 MEMB     70       DOPC     H9R      HEL1     0.150000       1.00800           0
     10087 MEMB     70       DOPC     C210     CEL1    -0.150000       12.0110           0
     10088 MEMB     70       DOPC     H10R     HEL1     0.150000       1.00800           0
     10089 MEMB     70       DOPC     C211     CTL2    -0.180000       12.0110           0
     10090 MEMB     70       DOPC     H11R     HAL2     0.900000E-01   1.00800           0
     10091 MEMB     70       DOPC     H11S     HAL2     0.900000E-01   1.00800           0
     10092 MEMB     70       DOPC     C212     CTL2    -0.180000       12.0110           0
     10093 MEMB     70       DOPC     H12R     HAL2     0.900000E-01   1.00800           0
     10094 MEMB     70       DOPC     H12S     HAL2     0.900000E-01   1.00800           0
     10095 MEMB     70       DOPC     C213     CTL2    -0.180000       12.0110           0
     10096 MEMB     70       DOPC     H13R     HAL2     0.900000E-01   1.00800           0
     10097 MEMB     70       DOPC     H13S     HAL2     0.900000E-01   1.00800           0
     10098 MEMB     70       DOPC     C214     CTL2    -0.180000       12.0110           0
     10099 MEMB     70       DOPC     H14R     HAL2     0.900000E-01   1.00800           0
     10100 MEMB     70       DOPC     H14S     HAL2     0.900000E-01   1.00800           0
     10101 MEMB     70       DOPC     C215     CTL2    -0.180000       12.0110           0
     10102 MEMB     70       DOPC     H15R     HAL2     0.900000E-01   1.00800           0
     10103 MEMB     70       DOPC     H15S     HAL2     0.900000E-01   1.00800           0
     10104 MEMB     70       DOPC     C216     CTL2    -0.180000       12.0110           0
     10105 MEMB     70       DOPC     H16R     HAL2     0.900000E-01   1.00800           0
     10106 MEMB     70       DOPC     H16S     HAL2     0.900000E-01   1.00800           0
     10107 MEMB     70       DOPC     C217     CTL2    -0.180000       12.0110           0
     10108 MEMB     70       DOPC     H17R     HAL2     0.900000E-01   1.00800           0
     10109 MEMB     70       DOPC     H17S     HAL2     0.900000E-01   1.00800           0
     10110 MEMB     70       DOPC     C218     CTL3    -0.270000       12.0110           0
     10111 MEMB     70       DOPC     H18R     HAL3     0.900000E-01   1.00800           0
     10112 MEMB     70       DOPC     H18S     HAL3     0.900000E-01   1.00800           0
     10113 MEMB     70       DOPC     H18T     HAL3     0.900000E-01   1.00800           0
     10114 MEMB     70       DOPC     C33      CTL2    -0.180000       12.0110           0
     10115 MEMB     70       DOPC     H3X      HAL2     0.900000E-01   1.00800           0
     10116 MEMB     70       DOPC     H3Y      HAL2     0.900000E-01   1.00800           0
     10117 MEMB     70       DOPC     C34      CTL2    -0.180000       12.0110           0
     10118 MEMB     70       DOPC     H4X      HAL2     0.900000E-01   1.00800           0
     10119 MEMB     70       DOPC     H4Y      HAL2     0.900000E-01   1.00800           0
     10120 MEMB     70       DOPC     C35      CTL2    -0.180000       12.0110           0
     10121 MEMB     70       DOPC     H5X      HAL2     0.900000E-01   1.00800           0
     10122 MEMB     70       DOPC     H5Y      HAL2     0.900000E-01   1.00800           0
     10123 MEMB     70       DOPC     C36      CTL2    -0.180000       12.0110           0
     10124 MEMB     70       DOPC     H6X      HAL2     0.900000E-01   1.00800           0
     10125 MEMB     70       DOPC     H6Y      HAL2     0.900000E-01   1.00800           0
     10126 MEMB     70       DOPC     C37      CTL2    -0.180000       12.0110           0
     10127 MEMB     70       DOPC     H7X      HAL2     0.900000E-01   1.00800           0
     10128 MEMB     70       DOPC     H7Y      HAL2     0.900000E-01   1.00800           0
     10129 MEMB     70       DOPC     C38      CTL2    -0.180000       12.0110           0
     10130 MEMB     70       DOPC     H8X      HAL2     0.900000E-01   1.00800           0
     10131 MEMB     70       DOPC     H8Y      HAL2     0.900000E-01   1.00800           0
     10132 MEMB     70       DOPC     C39      CEL1    -0.150000       12.0110           0
     10133 MEMB     70       DOPC     H9X      HEL1     0.150000       1.00800           0
     10134 MEMB     70       DOPC     C310     CEL1    -0.150000       12.0110           0
     10135 MEMB     70       DOPC     H10X     HEL1     0.150000       1.00800           0
     10136 MEMB     70       DOPC     C311     CTL2    -0.180000       12.0110           0
     10137 MEMB     70       DOPC     H11X     HAL2     0.900000E-01   1.00800           0
     10138 MEMB     70       DOPC     H11Y     HAL2     0.900000E-01   1.00800           0
     10139 MEMB     70       DOPC     C312     CTL2    -0.180000       12.0110           0
     10140 MEMB     70       DOPC     H12X     HAL2     0.900000E-01   1.00800           0
     10141 MEMB     70       DOPC     H12Y     HAL2     0.900000E-01   1.00800           0
     10142 MEMB     70       DOPC     C313     CTL2    -0.180000       12.0110           0
     10143 MEMB     70       DOPC     H13X     HAL2     0.900000E-01   1.00800           0
     10144 MEMB     70       DOPC     H13Y     HAL2     0.900000E-01   1.00800           0
     10145 MEMB     70       DOPC     C314     CTL2    -0.180000       12.0110           0
     10146 MEMB     70       DOPC     H14X     HAL2     0.900000E-01   1.00800           0
     10147 MEMB     70       DOPC     H14Y     HAL2     0.900000E-01   1.00800           0
     10148 MEMB     70       DOPC     C315     CTL2    -0.180000       12.0110           0
     10149 MEMB     70       DOPC     H15X     HAL2     0.900000E-01   1.00800           0
     10150 MEMB     70       DOPC     H15Y     HAL2     0.900000E-01   1.00800           0
     10151 MEMB     70       DOPC     C316     CTL2    -0.180000       12.0110           0
     10152 MEMB     70       DOPC     H16X     HAL2     0.900000E-01   1.00800           0
     10153 MEMB     70       DOPC     H16Y     HAL2     0.900000E-01   1.00800           0
     10154 MEMB     70       DOPC     C317     CTL2    -0.180000       12.0110           0
     10155 MEMB     70       DOPC     H17X     HAL2     0.900000E-01   1.00800           0
     10156 MEMB     70       DOPC     H17Y     HAL2     0.900000E-01   1.00800           0
     10157 MEMB     70       DOPC     C318     CTL3    -0.270000       12.0110           0
     10158 MEMB     70       DOPC     H18X     HAL3     0.900000E-01   1.00800           0
     10159 MEMB     70       DOPC     H18Y     HAL3     0.900000E-01   1.00800           0
     10160 MEMB     70       DOPC     H18Z     HAL3     0.900000E-01   1.00800           0
     10161 MEMB     71       DOPC     N        NTL     -0.600000       14.0070           0
     10162 MEMB     71       DOPC     C12      CTL2    -0.100000       12.0110           0
     10163 MEMB     71       DOPC     H12A     HL       0.250000       1.00800           0
     10164 MEMB     71       DOPC     H12B     HL       0.250000       1.00800           0
     10165 MEMB     71       DOPC     C13      CTL5    -0.350000       12.0110           0
     10166 MEMB     71       DOPC     H13A     HL       0.250000       1.00800           0
     10167 MEMB     71       DOPC     H13B     HL       0.250000       1.00800           0
     10168 MEMB     71       DOPC     H13C     HL       0.250000       1.00800           0
     10169 MEMB     71       DOPC     C14      CTL5    -0.350000       12.0110           0
     10170 MEMB     71       DOPC     H14A     HL       0.250000       1.00800           0
     10171 MEMB     71       DOPC     H14B     HL       0.250000       1.00800           0
     10172 MEMB     71       DOPC     H14C     HL       0.250000       1.00800           0
     10173 MEMB     71       DOPC     C15      CTL5    -0.350000       12.0110           0
     10174 MEMB     71       DOPC     H15A     HL       0.250000       1.00800           0
     10175 MEMB     71       DOPC     H15B     HL       0.250000       1.00800           0
     10176 MEMB     71       DOPC     H15C     HL       0.250000       1.00800           0
     10177 MEMB     71       DOPC     C11      CTL2    -0.800000E-01   12.0110           0
     10178 MEMB     71       DOPC     H11A     HAL2     0.900000E-01   1.00800           0
     10179 MEMB     71       DOPC     H11B     HAL2     0.900000E-01   1.00800           0
     10180 MEMB     71       DOPC     P        PL        1.50000       30.9740           0
     10181 MEMB     71       DOPC     O13      O2L     -0.780000       15.9994           0
     10182 MEMB     71       DOPC     O14      O2L     -0.780000       15.9994           0
     10183 MEMB     71       DOPC     O12      OSLP    -0.570000       15.9994           0
     10184 MEMB     71       DOPC     O11      OSLP    -0.570000       15.9994           0
     10185 MEMB     71       DOPC     C1       CTL2    -0.800000E-01   12.0110           0
     10186 MEMB     71       DOPC     HA       HAL2     0.900000E-01   1.00800           0
     10187 MEMB     71       DOPC     HB       HAL2     0.900000E-01   1.00800           0
     10188 MEMB     71       DOPC     C2       CTL1     0.170000       12.0110           0
     10189 MEMB     71       DOPC     HS       HAL1     0.900000E-01   1.00800           0
     10190 MEMB     71       DOPC     O21      OSL     -0.490000       15.9994           0
     10191 MEMB     71       DOPC     C21      CL       0.900000       12.0110           0
     10192 MEMB     71       DOPC     O22      OBL     -0.630000       15.9994           0
     10193 MEMB     71       DOPC     C22      CTL2    -0.220000       12.0110           0
     10194 MEMB     71       DOPC     H2R      HAL2     0.900000E-01   1.00800           0
     10195 MEMB     71       DOPC     H2S      HAL2     0.900000E-01   1.00800           0
     10196 MEMB     71       DOPC     C3       CTL2     0.800000E-01   12.0110           0
     10197 MEMB     71       DOPC     HX       HAL2     0.900000E-01   1.00800           0
     10198 MEMB     71       DOPC     HY       HAL2     0.900000E-01   1.00800           0
     10199 MEMB     71       DOPC     O31      OSL     -0.490000       15.9994           0
     10200 MEMB     71       DOPC     C31      CL       0.900000       12.0110           0
     10201 MEMB     71       DOPC     O32      OBL     -0.630000       15.9994           0
     10202 MEMB     71       DOPC     C32      CTL2    -0.220000       12.0110           0
     10203 MEMB     71       DOPC     H2X      HAL2     0.900000E-01   1.00800           0
     10204 MEMB     71       DOPC     H2Y      HAL2     0.900000E-01   1.00800           0
     10205 MEMB     71       DOPC     C23      CTL2    -0.180000       12.0110           0
     10206 MEMB     71       DOPC     H3R      HAL2     0.900000E-01   1.00800           0
     10207 MEMB     71       DOPC     H3S      HAL2     0.900000E-01   1.00800           0
     10208 MEMB     71       DOPC     C24      CTL2    -0.180000       12.0110           0
     10209 MEMB     71       DOPC     H4R      HAL2     0.900000E-01   1.00800           0
     10210 MEMB     71       DOPC     H4S      HAL2     0.900000E-01   1.00800           0
     10211 MEMB     71       DOPC     C25      CTL2    -0.180000       12.0110           0
     10212 MEMB     71       DOPC     H5R      HAL2     0.900000E-01   1.00800           0
     10213 MEMB     71       DOPC     H5S      HAL2     0.900000E-01   1.00800           0
     10214 MEMB     71       DOPC     C26      CTL2    -0.180000       12.0110           0
     10215 MEMB     71       DOPC     H6R      HAL2     0.900000E-01   1.00800           0
     10216 MEMB     71       DOPC     H6S      HAL2     0.900000E-01   1.00800           0
     10217 MEMB     71       DOPC     C27      CTL2    -0.180000       12.0110           0
     10218 MEMB     71       DOPC     H7R      HAL2     0.900000E-01   1.00800           0
     10219 MEMB     71       DOPC     H7S      HAL2     0.900000E-01   1.00800           0
     10220 MEMB     71       DOPC     C28      CTL2    -0.180000       12.0110           0
     10221 MEMB     71       DOPC     H8R      HAL2     0.900000E-01   1.00800           0
     10222 MEMB     71       DOPC     H8S      HAL2     0.900000E-01   1.00800           0
     10223 MEMB     71       DOPC     C29      CEL1    -0.150000       12.0110           0
     10224 MEMB     71       DOPC     H9R      HEL1     0.150000       1.00800           0
     10225 MEMB     71       DOPC     C210     CEL1    -0.150000       12.0110           0
     10226 MEMB     71       DOPC     H10R     HEL1     0.150000       1.00800           0
     10227 MEMB     71       DOPC     C211     CTL2    -0.180000       12.0110           0
     10228 MEMB     71       DOPC     H11R     HAL2     0.900000E-01   1.00800           0
     10229 MEMB     71       DOPC     H11S     HAL2     0.900000E-01   1.00800           0
     10230 MEMB     71       DOPC     C212     CTL2    -0.180000       12.0110           0
     10231 MEMB     71       DOPC     H12R     HAL2     0.900000E-01   1.00800           0
     10232 MEMB     71       DOPC     H12S     HAL2     0.900000E-01   1.00800           0
     10233 MEMB     71       DOPC     C213     CTL2    -0.180000       12.0110           0
     10234 MEMB     71       DOPC     H13R     HAL2     0.900000E-01   1.00800           0
     10235 MEMB     71       DOPC     H13S     HAL2     0.900000E-01   1.00800           0
     10236 MEMB     71       DOPC     C214     CTL2    -0.180000       12.0110           0
     10237 MEMB     71       DOPC     H14R     HAL2     0.900000E-01   1.00800           0
     10238 MEMB     71       DOPC     H14S     HAL2     0.900000E-01   1.00800           0
     10239 MEMB     71       DOPC     C215     CTL2    -0.180000       12.0110           0
     10240 MEMB     71       DOPC     H15R     HAL2     0.900000E-01   1.00800           0
     10241 MEMB     71       DOPC     H15S     HAL2     0.900000E-01   1.00800           0
     10242 MEMB     71       DOPC     C216     CTL2    -0.180000       12.0110           0
     10243 MEMB     71       DOPC     H16R     HAL2     0.900000E-01   1.00800           0
     10244 MEMB     71       DOPC     H16S     HAL2     0.900000E-01   1.00800           0
     10245 MEMB     71       DOPC     C217     CTL2    -0.180000       12.0110           0
     10246 MEMB     71       DOPC     H17R     HAL2     0.900000E-01   1.00800           0
     10247 MEMB     71       DOPC     H17S     HAL2     0.900000E-01   1.00800           0
     10248 MEMB     71       DOPC     C218     CTL3    -0.270000       12.0110           0
     10249 MEMB     71       DOPC     H18R     HAL3     0.900000E-01   1.00800           0
     10250 MEMB     71       DOPC     H18S     HAL3     0.900000E-01   1.00800           0
     10251 MEMB     71       DOPC     H18T     HAL3     0.900000E-01   1.00800           0
     10252 MEMB     71       DOPC     C33      CTL2    -0.180000       12.0110           0
     10253 MEMB     71       DOPC     H3X      HAL2     0.900000E-01   1.00800           0
     10254 MEMB     71       DOPC     H3Y      HAL2     0.900000E-01   1.00800           0
     10255 MEMB     71       DOPC     C34      CTL2    -0.180000       12.0110           0
     10256 MEMB     71       DOPC     H4X      HAL2     0.900000E-01   1.00800           0
     10257 MEMB     71       DOPC     H4Y      HAL2     0.900000E-01   1.00800           0
     10258 MEMB     71       DOPC     C35      CTL2    -0.180000       12.0110           0
     10259 MEMB     71       DOPC     H5X      HAL2     0.900000E-01   1.00800           0
     10260 MEMB     71       DOPC     H5Y      HAL2     0.900000E-01   1.00800           0
     10261 MEMB     71       DOPC     C36      CTL2    -0.180000       12.0110           0
     10262 MEMB     71       DOPC     H6X      HAL2     0.900000E-01   1.00800           0
     10263 MEMB     71       DOPC     H6Y      HAL2     0.900000E-01   1.00800           0
     10264 MEMB     71       DOPC     C37      CTL2    -0.180000       12.0110           0
     10265 MEMB     71       DOPC     H7X      HAL2     0.900000E-01   1.00800           0
     10266 MEMB     71       DOPC     H7Y      HAL2     0.900000E-01   1.00800           0
     10267 MEMB     71       DOPC     C38      CTL2    -0.180000       12.0110           0
     10268 MEMB     71       DOPC     H8X      HAL2     0.900000E-01   1.00800           0
     10269 MEMB     71       DOPC     H8Y      HAL2     0.900000E-01   1.00800           0
     10270 MEMB     71       DOPC     C39      CEL1    -0.150000       12.0110           0
     10271 MEMB     71       DOPC     H9X      HEL1     0.150000       1.00800           0
     10272 MEMB     71       DOPC     C310     CEL1    -0.150000       12.0110           0
     10273 MEMB     71       DOPC     H10X     HEL1     0.150000       1.00800           0
     10274 MEMB     71       DOPC     C311     CTL2    -0.180000       12.0110           0
     10275 MEMB     71       DOPC     H11X     HAL2     0.900000E-01   1.00800           0
     10276 MEMB     71       DOPC     H11Y     HAL2     0.900000E-01   1.00800           0
     10277 MEMB     71       DOPC     C312     CTL2    -0.180000       12.0110           0
     10278 MEMB     71       DOPC     H12X     HAL2     0.900000E-01   1.00800           0
     10279 MEMB     71       DOPC     H12Y     HAL2     0.900000E-01   1.00800           0
     10280 MEMB     71       DOPC     C313     CTL2    -0.180000       12.0110           0
     10281 MEMB     71       DOPC     H13X     HAL2     0.900000E-01   1.00800           0
     10282 MEMB     71       DOPC     H13Y     HAL2     0.900000E-01   1.00800           0
     10283 MEMB     71       DOPC     C314     CTL2    -0.180000       12.0110           0
     10284 MEMB     71       DOPC     H14X     HAL2     0.900000E-01   1.00800           0
     10285 MEMB     71       DOPC     H14Y     HAL2     0.900000E-01   1.00800           0
     10286 MEMB     71       DOPC     C315     CTL2    -0.180000       12.0110           0
     10287 MEMB     71       DOPC     H15X     HAL2     0.900000E-01   1.00800           0
     10288 MEMB     71       DOPC     H15Y     HAL2     0.900000E-01   1.00800           0
     10289 MEMB     71       DOPC     C316     CTL2    -0.180000       12.0110           0
     10290 MEMB     71       DOPC     H16X     HAL2     0.900000E-01   1.00800           0
     10291 MEMB     71       DOPC     H16Y     HAL2     0.900000E-01   1.00800           0
     10292 MEMB     71       DOPC     C317     CTL2    -0.180000       12.0110           0
     10293 MEMB     71       DOPC     H17X     HAL2     0.900000E-01   1.00800           0
     10294 MEMB     71       DOPC     H17Y     HAL2     0.900000E-01   1.00800           0
     10295 MEMB     71       DOPC     C318     CTL3    -0.270000       12.0110           0
     10296 MEMB     71       DOPC     H18X     HAL3     0.900000E-01   1.00800           0
     10297 MEMB     71       DOPC     H18Y     HAL3     0.900000E-01   1.00800           0
     10298 MEMB     71       DOPC     H18Z     HAL3     0.900000E-01   1.00800           0
     10299 MEMB     72       DOPC     N        NTL     -0.600000       14.0070           0
     10300 MEMB     72       DOPC     C12      CTL2    -0.100000       12.0110           0
     10301 MEMB     72       DOPC     H12A     HL       0.250000       1.00800           0
     10302 MEMB     72       DOPC     H12B     HL       0.250000       1.00800           0
     10303 MEMB     72       DOPC     C13      CTL5    -0.350000       12.0110           0
     10304 MEMB     72       DOPC     H13A     HL       0.250000       1.00800           0
     10305 MEMB     72       DOPC     H13B     HL       0.250000       1.00800           0
     10306 MEMB     72       DOPC     H13C     HL       0.250000       1.00800           0
     10307 MEMB     72       DOPC     C14      CTL5    -0.350000       12.0110           0
     10308 MEMB     72       DOPC     H14A     HL       0.250000       1.00800           0
     10309 MEMB     72       DOPC     H14B     HL       0.250000       1.00800           0
     10310 MEMB     72       DOPC     H14C     HL       0.250000       1.00800           0
     10311 MEMB     72       DOPC     C15      CTL5    -0.350000       12.0110           0
     10312 MEMB     72       DOPC     H15A     HL       0.250000       1.00800           0
     10313 MEMB     72       DOPC     H15B     HL       0.250000       1.00800           0
     10314 MEMB     72       DOPC     H15C     HL       0.250000       1.00800           0
     10315 MEMB     72       DOPC     C11      CTL2    -0.800000E-01   12.0110           0
     10316 MEMB     72       DOPC     H11A     HAL2     0.900000E-01   1.00800           0
     10317 MEMB     72       DOPC     H11B     HAL2     0.900000E-01   1.00800           0
     10318 MEMB     72       DOPC     P        PL        1.50000       30.9740           0
     10319 MEMB     72       DOPC     O13      O2L     -0.780000       15.9994           0
     10320 MEMB     72       DOPC     O14      O2L     -0.780000       15.9994           0
     10321 MEMB     72       DOPC     O12      OSLP    -0.570000       15.9994           0
     10322 MEMB     72       DOPC     O11      OSLP    -0.570000       15.9994           0
     10323 MEMB     72       DOPC     C1       CTL2    -0.800000E-01   12.0110           0
     10324 MEMB     72       DOPC     HA       HAL2     0.900000E-01   1.00800           0
     10325 MEMB     72       DOPC     HB       HAL2     0.900000E-01   1.00800           0
     10326 MEMB     72       DOPC     C2       CTL1     0.170000       12.0110           0
     10327 MEMB     72       DOPC     HS       HAL1     0.900000E-01   1.00800           0
     10328 MEMB     72       DOPC     O21      OSL     -0.490000       15.9994           0
     10329 MEMB     72       DOPC     C21      CL       0.900000       12.0110           0
     10330 MEMB     72       DOPC     O22      OBL     -0.630000       15.9994           0
     10331 MEMB     72       DOPC     C22      CTL2    -0.220000       12.0110           0
     10332 MEMB     72       DOPC     H2R      HAL2     0.900000E-01   1.00800           0
     10333 MEMB     72       DOPC     H2S      HAL2     0.900000E-01   1.00800           0
     10334 MEMB     72       DOPC     C3       CTL2     0.800000E-01   12.0110           0
     10335 MEMB     72       DOPC     HX       HAL2     0.900000E-01   1.00800           0
     10336 MEMB     72       DOPC     HY       HAL2     0.900000E-01   1.00800           0
     10337 MEMB     72       DOPC     O31      OSL     -0.490000       15.9994           0
     10338 MEMB     72       DOPC     C31      CL       0.900000       12.0110           0
     10339 MEMB     72       DOPC     O32      OBL     -0.630000       15.9994           0
     10340 MEMB     72       DOPC     C32      CTL2    -0.220000       12.0110           0
     10341 MEMB     72       DOPC     H2X      HAL2     0.900000E-01   1.00800           0
     10342 MEMB     72       DOPC     H2Y      HAL2     0.900000E-01   1.00800           0
     10343 MEMB     72       DOPC     C23      CTL2    -0.180000       12.0110           0
     10344 MEMB     72       DOPC     H3R      HAL2     0.900000E-01   1.00800           0
     10345 MEMB     72       DOPC     H3S      HAL2     0.900000E-01   1.00800           0
     10346 MEMB     72       DOPC     C24      CTL2    -0.180000       12.0110           0
     10347 MEMB     72       DOPC     H4R      HAL2     0.900000E-01   1.00800           0
     10348 MEMB     72       DOPC     H4S      HAL2     0.900000E-01   1.00800           0
     10349 MEMB     72       DOPC     C25      CTL2    -0.180000       12.0110           0
     10350 MEMB     72       DOPC     H5R      HAL2     0.900000E-01   1.00800           0
     10351 MEMB     72       DOPC     H5S      HAL2     0.900000E-01   1.00800           0
     10352 MEMB     72       DOPC     C26      CTL2    -0.180000       12.0110           0
     10353 MEMB     72       DOPC     H6R      HAL2     0.900000E-01   1.00800           0
     10354 MEMB     72       DOPC     H6S      HAL2     0.900000E-01   1.00800           0
     10355 MEMB     72       DOPC     C27      CTL2    -0.180000       12.0110           0
     10356 MEMB     72       DOPC     H7R      HAL2     0.900000E-01   1.00800           0
     10357 MEMB     72       DOPC     H7S      HAL2     0.900000E-01   1.00800           0
     10358 MEMB     72       DOPC     C28      CTL2    -0.180000       12.0110           0
     10359 MEMB     72       DOPC     H8R      HAL2     0.900000E-01   1.00800           0
     10360 MEMB     72       DOPC     H8S      HAL2     0.900000E-01   1.00800           0
     10361 MEMB     72       DOPC     C29      CEL1    -0.150000       12.0110           0
     10362 MEMB     72       DOPC     H9R      HEL1     0.150000       1.00800           0
     10363 MEMB     72       DOPC     C210     CEL1    -0.150000       12.0110           0
     10364 MEMB     72       DOPC     H10R     HEL1     0.150000       1.00800           0
     10365 MEMB     72       DOPC     C211     CTL2    -0.180000       12.0110           0
     10366 MEMB     72       DOPC     H11R     HAL2     0.900000E-01   1.00800           0
     10367 MEMB     72       DOPC     H11S     HAL2     0.900000E-01   1.00800           0
     10368 MEMB     72       DOPC     C212     CTL2    -0.180000       12.0110           0
     10369 MEMB     72       DOPC     H12R     HAL2     0.900000E-01   1.00800           0
     10370 MEMB     72       DOPC     H12S     HAL2     0.900000E-01   1.00800           0
     10371 MEMB     72       DOPC     C213     CTL2    -0.180000       12.0110           0
     10372 MEMB     72       DOPC     H13R     HAL2     0.900000E-01   1.00800           0
     10373 MEMB     72       DOPC     H13S     HAL2     0.900000E-01   1.00800           0
     10374 MEMB     72       DOPC     C214     CTL2    -0.180000       12.0110           0
     10375 MEMB     72       DOPC     H14R     HAL2     0.900000E-01   1.00800           0
     10376 MEMB     72       DOPC     H14S     HAL2     0.900000E-01   1.00800           0
     10377 MEMB     72       DOPC     C215     CTL2    -0.180000       12.0110           0
     10378 MEMB     72       DOPC     H15R     HAL2     0.900000E-01   1.00800           0
     10379 MEMB     72       DOPC     H15S     HAL2     0.900000E-01   1.00800           0
     10380 MEMB     72       DOPC     C216     CTL2    -0.180000       12.0110           0
     10381 MEMB     72       DOPC     H16R     HAL2     0.900000E-01   1.00800           0
     10382 MEMB     72       DOPC     H16S     HAL2     0.900000E-01   1.00800           0
     10383 MEMB     72       DOPC     C217     CTL2    -0.180000       12.0110           0
     10384 MEMB     72       DOPC     H17R     HAL2     0.900000E-01   1.00800           0
     10385 MEMB     72       DOPC     H17S     HAL2     0.900000E-01   1.00800           0
     10386 MEMB     72       DOPC     C218     CTL3    -0.270000       12.0110           0
     10387 MEMB     72       DOPC     H18R     HAL3     0.900000E-01   1.00800           0
     10388 MEMB     72       DOPC     H18S     HAL3     0.900000E-01   1.00800           0
     10389 MEMB     72       DOPC     H18T     HAL3     0.900000E-01   1.00800           0
     10390 MEMB     72       DOPC     C33      CTL2    -0.180000       12.0110           0
     10391 MEMB     72       DOPC     H3X      HAL2     0.900000E-01   1.00800           0
     10392 MEMB     72       DOPC     H3Y      HAL2     0.900000E-01   1.00800           0
     10393 MEMB     72       DOPC     C34      CTL2    -0.180000       12.0110           0
     10394 MEMB     72       DOPC     H4X      HAL2     0.900000E-01   1.00800           0
     10395 MEMB     72       DOPC     H4Y      HAL2     0.900000E-01   1.00800           0
     10396 MEMB     72       DOPC     C35      CTL2    -0.180000       12.0110           0
     10397 MEMB     72       DOPC     H5X      HAL2     0.900000E-01   1.00800           0
     10398 MEMB     72       DOPC     H5Y      HAL2     0.900000E-01   1.00800           0
     10399 MEMB     72       DOPC     C36      CTL2    -0.180000       12.0110           0
     10400 MEMB     72       DOPC     H6X      HAL2     0.900000E-01   1.00800           0
     10401 MEMB     72       DOPC     H6Y      HAL2     0.900000E-01   1.00800           0
     10402 MEMB     72       DOPC     C37      CTL2    -0.180000       12.0110           0
     10403 MEMB     72       DOPC     H7X      HAL2     0.900000E-01   1.00800           0
     10404 MEMB     72       DOPC     H7Y      HAL2     0.900000E-01   1.00800           0
     10405 MEMB     72       DOPC     C38      CTL2    -0.180000       12.0110           0
     10406 MEMB     72       DOPC     H8X      HAL2     0.900000E-01   1.00800           0
     10407 MEMB     72       DOPC     H8Y      HAL2     0.900000E-01   1.00800           0
     10408 MEMB     72       DOPC     C39      CEL1    -0.150000       12.0110           0
     10409 MEMB     72       DOPC     H9X      HEL1     0.150000       1.00800           0
     10410 MEMB     72       DOPC     C310     CEL1    -0.150000       12.0110           0
     10411 MEMB     72       DOPC     H10X     HEL1     0.150000       1.00800           0
     10412 MEMB     72       DOPC     C311     CTL2    -0.180000       12.0110           0
     10413 MEMB     72       DOPC     H11X     HAL2     0.900000E-01   1.00800           0
     10414 MEMB     72       DOPC     H11Y     HAL2     0.900000E-01   1.00800           0
     10415 MEMB     72       DOPC     C312     CTL2    -0.180000       12.0110           0
     10416 MEMB     72       DOPC     H12X     HAL2     0.900000E-01   1.00800           0
     10417 MEMB     72       DOPC     H12Y     HAL2     0.900000E-01   1.00800           0
     10418 MEMB     72       DOPC     C313     CTL2    -0.180000       12.0110           0
     10419 MEMB     72       DOPC     H13X     HAL2     0.900000E-01   1.00800           0
     10420 MEMB     72       DOPC     H13Y     HAL2     0.900000E-01   1.00800           0
     10421 MEMB     72       DOPC     C314     CTL2    -0.180000       12.0110           0
     10422 MEMB     72       DOPC     H14X     HAL2     0.900000E-01   1.00800           0
     10423 MEMB     72       DOPC     H14Y     HAL2     0.900000E-01   1.00800           0
     10424 MEMB     72       DOPC     C315     CTL2    -0.180000       12.0110           0
     10425 MEMB     72       DOPC     H15X     HAL2     0.900000E-01   1.00800           0
     10426 MEMB     72       DOPC     H15Y     HAL2     0.900000E-01   1.00800           0
     10427 MEMB     72       DOPC     C316     CTL2    -0.180000       12.0110           0
     10428 MEMB     72       DOPC     H16X     HAL2     0.900000E-01   1.00800           0
     10429 MEMB     72       DOPC     H16Y     HAL2     0.900000E-01   1.00800           0
     10430 MEMB     72       DOPC     C317     CTL2    -0.180000       12.0110           0
     10431 MEMB     72       DOPC     H17X     HAL2     0.900000E-01   1.00800           0
     10432 MEMB     72       DOPC     H17Y     HAL2     0.900000E-01   1.00800           0
     10433 MEMB     72       DOPC     C318     CTL3    -0.270000       12.0110           0
     10434 MEMB     72       DOPC     H18X     HAL3     0.900000E-01   1.00800           0
     10435 MEMB     72       DOPC     H18Y     HAL3     0.900000E-01   1.00800           0
     10436 MEMB     72       DOPC     H18Z     HAL3     0.900000E-01   1.00800           0
     10437 MEMB     73       DOPC     N        NTL     -0.600000       14.0070           0
     10438 MEMB     73       DOPC     C12      CTL2    -0.100000       12.0110           0
     10439 MEMB     73       DOPC     H12A     HL       0.250000       1.00800           0
     10440 MEMB     73       DOPC     H12B     HL       0.250000       1.00800           0
     10441 MEMB     73       DOPC     C13      CTL5    -0.350000       12.0110           0
     10442 MEMB     73       DOPC     H13A     HL       0.250000       1.00800           0
     10443 MEMB     73       DOPC     H13B     HL       0.250000       1.00800           0
     10444 MEMB     73       DOPC     H13C     HL       0.250000       1.00800           0
     10445 MEMB     73       DOPC     C14      CTL5    -0.350000       12.0110           0
     10446 MEMB     73       DOPC     H14A     HL       0.250000       1.00800           0
     10447 MEMB     73       DOPC     H14B     HL       0.250000       1.00800           0
     10448 MEMB     73       DOPC     H14C     HL       0.250000       1.00800           0
     10449 MEMB     73       DOPC     C15      CTL5    -0.350000       12.0110           0
     10450 MEMB     73       DOPC     H15A     HL       0.250000       1.00800           0
     10451 MEMB     73       DOPC     H15B     HL       0.250000       1.00800           0
     10452 MEMB     73       DOPC     H15C     HL       0.250000       1.00800           0
     10453 MEMB     73       DOPC     C11      CTL2    -0.800000E-01   12.0110           0
     10454 MEMB     73       DOPC     H11A     HAL2     0.900000E-01   1.00800           0
     10455 MEMB     73       DOPC     H11B     HAL2     0.900000E-01   1.00800           0
     10456 MEMB     73       DOPC     P        PL        1.50000       30.9740           0
     10457 MEMB     73       DOPC     O13      O2L     -0.780000       15.9994           0
     10458 MEMB     73       DOPC     O14      O2L     -0.780000       15.9994           0
     10459 MEMB     73       DOPC     O12      OSLP    -0.570000       15.9994           0
     10460 MEMB     73       DOPC     O11      OSLP    -0.570000       15.9994           0
     10461 MEMB     73       DOPC     C1       CTL2    -0.800000E-01   12.0110           0
     10462 MEMB     73       DOPC     HA       HAL2     0.900000E-01   1.00800           0
     10463 MEMB     73       DOPC     HB       HAL2     0.900000E-01   1.00800           0
     10464 MEMB     73       DOPC     C2       CTL1     0.170000       12.0110           0
     10465 MEMB     73       DOPC     HS       HAL1     0.900000E-01   1.00800           0
     10466 MEMB     73       DOPC     O21      OSL     -0.490000       15.9994           0
     10467 MEMB     73       DOPC     C21      CL       0.900000       12.0110           0
     10468 MEMB     73       DOPC     O22      OBL     -0.630000       15.9994           0
     10469 MEMB     73       DOPC     C22      CTL2    -0.220000       12.0110           0
     10470 MEMB     73       DOPC     H2R      HAL2     0.900000E-01   1.00800           0
     10471 MEMB     73       DOPC     H2S      HAL2     0.900000E-01   1.00800           0
     10472 MEMB     73       DOPC     C3       CTL2     0.800000E-01   12.0110           0
     10473 MEMB     73       DOPC     HX       HAL2     0.900000E-01   1.00800           0
     10474 MEMB     73       DOPC     HY       HAL2     0.900000E-01   1.00800           0
     10475 MEMB     73       DOPC     O31      OSL     -0.490000       15.9994           0
     10476 MEMB     73       DOPC     C31      CL       0.900000       12.0110           0
     10477 MEMB     73       DOPC     O32      OBL     -0.630000       15.9994           0
     10478 MEMB     73       DOPC     C32      CTL2    -0.220000       12.0110           0
     10479 MEMB     73       DOPC     H2X      HAL2     0.900000E-01   1.00800           0
     10480 MEMB     73       DOPC     H2Y      HAL2     0.900000E-01   1.00800           0
     10481 MEMB     73       DOPC     C23      CTL2    -0.180000       12.0110           0
     10482 MEMB     73       DOPC     H3R      HAL2     0.900000E-01   1.00800           0
     10483 MEMB     73       DOPC     H3S      HAL2     0.900000E-01   1.00800           0
     10484 MEMB     73       DOPC     C24      CTL2    -0.180000       12.0110           0
     10485 MEMB     73       DOPC     H4R      HAL2     0.900000E-01   1.00800           0
     10486 MEMB     73       DOPC     H4S      HAL2     0.900000E-01   1.00800           0
     10487 MEMB     73       DOPC     C25      CTL2    -0.180000       12.0110           0
     10488 MEMB     73       DOPC     H5R      HAL2     0.900000E-01   1.00800           0
     10489 MEMB     73       DOPC     H5S      HAL2     0.900000E-01   1.00800           0
     10490 MEMB     73       DOPC     C26      CTL2    -0.180000       12.0110           0
     10491 MEMB     73       DOPC     H6R      HAL2     0.900000E-01   1.00800           0
     10492 MEMB     73       DOPC     H6S      HAL2     0.900000E-01   1.00800           0
     10493 MEMB     73       DOPC     C27      CTL2    -0.180000       12.0110           0
     10494 MEMB     73       DOPC     H7R      HAL2     0.900000E-01   1.00800           0
     10495 MEMB     73       DOPC     H7S      HAL2     0.900000E-01   1.00800           0
     10496 MEMB     73       DOPC     C28      CTL2    -0.180000       12.0110           0
     10497 MEMB     73       DOPC     H8R      HAL2     0.900000E-01   1.00800           0
     10498 MEMB     73       DOPC     H8S      HAL2     0.900000E-01   1.00800           0
     10499 MEMB     73       DOPC     C29      CEL1    -0.150000       12.0110           0
     10500 MEMB     73       DOPC     H9R      HEL1     0.150000       1.00800           0
     10501 MEMB     73       DOPC     C210     CEL1    -0.150000       12.0110           0
     10502 MEMB     73       DOPC     H10R     HEL1     0.150000       1.00800           0
     10503 MEMB     73       DOPC     C211     CTL2    -0.180000       12.0110           0
     10504 MEMB     73       DOPC     H11R     HAL2     0.900000E-01   1.00800           0
     10505 MEMB     73       DOPC     H11S     HAL2     0.900000E-01   1.00800           0
     10506 MEMB     73       DOPC     C212     CTL2    -0.180000       12.0110           0
     10507 MEMB     73       DOPC     H12R     HAL2     0.900000E-01   1.00800           0
     10508 MEMB     73       DOPC     H12S     HAL2     0.900000E-01   1.00800           0
     10509 MEMB     73       DOPC     C213     CTL2    -0.180000       12.0110           0
     10510 MEMB     73       DOPC     H13R     HAL2     0.900000E-01   1.00800           0
     10511 MEMB     73       DOPC     H13S     HAL2     0.900000E-01   1.00800           0
     10512 MEMB     73       DOPC     C214     CTL2    -0.180000       12.0110           0
     10513 MEMB     73       DOPC     H14R     HAL2     0.900000E-01   1.00800           0
     10514 MEMB     73       DOPC     H14S     HAL2     0.900000E-01   1.00800           0
     10515 MEMB     73       DOPC     C215     CTL2    -0.180000       12.0110           0
     10516 MEMB     73       DOPC     H15R     HAL2     0.900000E-01   1.00800           0
     10517 MEMB     73       DOPC     H15S     HAL2     0.900000E-01   1.00800           0
     10518 MEMB     73       DOPC     C216     CTL2    -0.180000       12.0110           0
     10519 MEMB     73       DOPC     H16R     HAL2     0.900000E-01   1.00800           0
     10520 MEMB     73       DOPC     H16S     HAL2     0.900000E-01   1.00800           0
     10521 MEMB     73       DOPC     C217     CTL2    -0.180000       12.0110           0
     10522 MEMB     73       DOPC     H17R     HAL2     0.900000E-01   1.00800           0
     10523 MEMB     73       DOPC     H17S     HAL2     0.900000E-01   1.00800           0
     10524 MEMB     73       DOPC     C218     CTL3    -0.270000       12.0110           0
     10525 MEMB     73       DOPC     H18R     HAL3     0.900000E-01   1.00800           0
     10526 MEMB     73       DOPC     H18S     HAL3     0.900000E-01   1.00800           0
     10527 MEMB     73       DOPC     H18T     HAL3     0.900000E-01   1.00800           0
     10528 MEMB     73       DOPC     C33      CTL2    -0.180000       12.0110           0
     10529 MEMB     73       DOPC     H3X      HAL2     0.900000E-01   1.00800           0
     10530 MEMB     73       DOPC     H3Y      HAL2     0.900000E-01   1.00800           0
     10531 MEMB     73       DOPC     C34      CTL2    -0.180000       12.0110           0
     10532 MEMB     73       DOPC     H4X      HAL2     0.900000E-01   1.00800           0
     10533 MEMB     73       DOPC     H4Y      HAL2     0.900000E-01   1.00800           0
     10534 MEMB     73       DOPC     C35      CTL2    -0.180000       12.0110           0
     10535 MEMB     73       DOPC     H5X      HAL2     0.900000E-01   1.00800           0
     10536 MEMB     73       DOPC     H5Y      HAL2     0.900000E-01   1.00800           0
     10537 MEMB     73       DOPC     C36      CTL2    -0.180000       12.0110           0
     10538 MEMB     73       DOPC     H6X      HAL2     0.900000E-01   1.00800           0
     10539 MEMB     73       DOPC     H6Y      HAL2     0.900000E-01   1.00800           0
     10540 MEMB     73       DOPC     C37      CTL2    -0.180000       12.0110           0
     10541 MEMB     73       DOPC     H7X      HAL2     0.900000E-01   1.00800           0
     10542 MEMB     73       DOPC     H7Y      HAL2     0.900000E-01   1.00800           0
     10543 MEMB     73       DOPC     C38      CTL2    -0.180000       12.0110           0
     10544 MEMB     73       DOPC     H8X      HAL2     0.900000E-01   1.00800           0
     10545 MEMB     73       DOPC     H8Y      HAL2     0.900000E-01   1.00800           0
     10546 MEMB     73       DOPC     C39      CEL1    -0.150000       12.0110           0
     10547 MEMB     73       DOPC     H9X      HEL1     0.150000       1.00800           0
     10548 MEMB     73       DOPC     C310     CEL1    -0.150000       12.0110           0
     10549 MEMB     73       DOPC     H10X     HEL1     0.150000       1.00800           0
     10550 MEMB     73       DOPC     C311     CTL2    -0.180000       12.0110           0
     10551 MEMB     73       DOPC     H11X     HAL2     0.900000E-01   1.00800           0
     10552 MEMB     73       DOPC     H11Y     HAL2     0.900000E-01   1.00800           0
     10553 MEMB     73       DOPC     C312     CTL2    -0.180000       12.0110           0
     10554 MEMB     73       DOPC     H12X     HAL2     0.900000E-01   1.00800           0
     10555 MEMB     73       DOPC     H12Y     HAL2     0.900000E-01   1.00800           0
     10556 MEMB     73       DOPC     C313     CTL2    -0.180000       12.0110           0
     10557 MEMB     73       DOPC     H13X     HAL2     0.900000E-01   1.00800           0
     10558 MEMB     73       DOPC     H13Y     HAL2     0.900000E-01   1.00800           0
     10559 MEMB     73       DOPC     C314     CTL2    -0.180000       12.0110           0
     10560 MEMB     73       DOPC     H14X     HAL2     0.900000E-01   1.00800           0
     10561 MEMB     73       DOPC     H14Y     HAL2     0.900000E-01   1.00800           0
     10562 MEMB     73       DOPC     C315     CTL2    -0.180000       12.0110           0
     10563 MEMB     73       DOPC     H15X     HAL2     0.900000E-01   1.00800           0
     10564 MEMB     73       DOPC     H15Y     HAL2     0.900000E-01   1.00800           0
     10565 MEMB     73       DOPC     C316     CTL2    -0.180000       12.0110           0
     10566 MEMB     73       DOPC     H16X     HAL2     0.900000E-01   1.00800           0
     10567 MEMB     73       DOPC     H16Y     HAL2     0.900000E-01   1.00800           0
     10568 MEMB     73       DOPC     C317     CTL2    -0.180000       12.0110           0
     10569 MEMB     73       DOPC     H17X     HAL2     0.900000E-01   1.00800           0
     10570 MEMB     73       DOPC     H17Y     HAL2     0.900000E-01   1.00800           0
     10571 MEMB     73       DOPC     C318     CTL3    -0.270000       12.0110           0
     10572 MEMB     73       DOPC     H18X     HAL3     0.900000E-01   1.00800           0
     10573 MEMB     73       DOPC     H18Y     HAL3     0.900000E-01   1.00800           0
     10574 MEMB     73       DOPC     H18Z     HAL3     0.900000E-01   1.00800           0
     10575 MEMB     74       DOPC     N        NTL     -0.600000       14.0070           0
     10576 MEMB     74       DOPC     C12      CTL2    -0.100000       12.0110           0
     10577 MEMB     74       DOPC     H12A     HL       0.250000       1.00800           0
     10578 MEMB     74       DOPC     H12B     HL       0.250000       1.00800           0
     10579 MEMB     74       DOPC     C13      CTL5    -0.350000       12.0110           0
     10580 MEMB     74       DOPC     H13A     HL       0.250000       1.00800           0
     10581 MEMB     74       DOPC     H13B     HL       0.250000       1.00800           0
     10582 MEMB     74       DOPC     H13C     HL       0.250000       1.00800           0
     10583 MEMB     74       DOPC     C14      CTL5    -0.350000       12.0110           0
     10584 MEMB     74       DOPC     H14A     HL       0.250000       1.00800           0
     10585 MEMB     74       DOPC     H14B     HL       0.250000       1.00800           0
     10586 MEMB     74       DOPC     H14C     HL       0.250000       1.00800           0
     10587 MEMB     74       DOPC     C15      CTL5    -0.350000       12.0110           0
     10588 MEMB     74       DOPC     H15A     HL       0.250000       1.00800           0
     10589 MEMB     74       DOPC     H15B     HL       0.250000       1.00800           0
     10590 MEMB     74       DOPC     H15C     HL       0.250000       1.00800           0
     10591 MEMB     74       DOPC     C11      CTL2    -0.800000E-01   12.0110           0
     10592 MEMB     74       DOPC     H11A     HAL2     0.900000E-01   1.00800           0
     10593 MEMB     74       DOPC     H11B     HAL2     0.900000E-01   1.00800           0
     10594 MEMB     74       DOPC     P        PL        1.50000       30.9740           0
     10595 MEMB     74       DOPC     O13      O2L     -0.780000       15.9994           0
     10596 MEMB     74       DOPC     O14      O2L     -0.780000       15.9994           0
     10597 MEMB     74       DOPC     O12      OSLP    -0.570000       15.9994           0
     10598 MEMB     74       DOPC     O11      OSLP    -0.570000       15.9994           0
     10599 MEMB     74       DOPC     C1       CTL2    -0.800000E-01   12.0110           0
     10600 MEMB     74       DOPC     HA       HAL2     0.900000E-01   1.00800           0
     10601 MEMB     74       DOPC     HB       HAL2     0.900000E-01   1.00800           0
     10602 MEMB     74       DOPC     C2       CTL1     0.170000       12.0110           0
     10603 MEMB     74       DOPC     HS       HAL1     0.900000E-01   1.00800           0
     10604 MEMB     74       DOPC     O21      OSL     -0.490000       15.9994           0
     10605 MEMB     74       DOPC     C21      CL       0.900000       12.0110           0
     10606 MEMB     74       DOPC     O22      OBL     -0.630000       15.9994           0
     10607 MEMB     74       DOPC     C22      CTL2    -0.220000       12.0110           0
     10608 MEMB     74       DOPC     H2R      HAL2     0.900000E-01   1.00800           0
     10609 MEMB     74       DOPC     H2S      HAL2     0.900000E-01   1.00800           0
     10610 MEMB     74       DOPC     C3       CTL2     0.800000E-01   12.0110           0
     10611 MEMB     74       DOPC     HX       HAL2     0.900000E-01   1.00800           0
     10612 MEMB     74       DOPC     HY       HAL2     0.900000E-01   1.00800           0
     10613 MEMB     74       DOPC     O31      OSL     -0.490000       15.9994           0
     10614 MEMB     74       DOPC     C31      CL       0.900000       12.0110           0
     10615 MEMB     74       DOPC     O32      OBL     -0.630000       15.9994           0
     10616 MEMB     74       DOPC     C32      CTL2    -0.220000       12.0110           0
     10617 MEMB     74       DOPC     H2X      HAL2     0.900000E-01   1.00800           0
     10618 MEMB     74       DOPC     H2Y      HAL2     0.900000E-01   1.00800           0
     10619 MEMB     74       DOPC     C23      CTL2    -0.180000       12.0110           0
     10620 MEMB     74       DOPC     H3R      HAL2     0.900000E-01   1.00800           0
     10621 MEMB     74       DOPC     H3S      HAL2     0.900000E-01   1.00800           0
     10622 MEMB     74       DOPC     C24      CTL2    -0.180000       12.0110           0
     10623 MEMB     74       DOPC     H4R      HAL2     0.900000E-01   1.00800           0
     10624 MEMB     74       DOPC     H4S      HAL2     0.900000E-01   1.00800           0
     10625 MEMB     74       DOPC     C25      CTL2    -0.180000       12.0110           0
     10626 MEMB     74       DOPC     H5R      HAL2     0.900000E-01   1.00800           0
     10627 MEMB     74       DOPC     H5S      HAL2     0.900000E-01   1.00800           0
     10628 MEMB     74       DOPC     C26      CTL2    -0.180000       12.0110           0
     10629 MEMB     74       DOPC     H6R      HAL2     0.900000E-01   1.00800           0
     10630 MEMB     74       DOPC     H6S      HAL2     0.900000E-01   1.00800           0
     10631 MEMB     74       DOPC     C27      CTL2    -0.180000       12.0110           0
     10632 MEMB     74       DOPC     H7R      HAL2     0.900000E-01   1.00800           0
     10633 MEMB     74       DOPC     H7S      HAL2     0.900000E-01   1.00800           0
     10634 MEMB     74       DOPC     C28      CTL2    -0.180000       12.0110           0
     10635 MEMB     74       DOPC     H8R      HAL2     0.900000E-01   1.00800           0
     10636 MEMB     74       DOPC     H8S      HAL2     0.900000E-01   1.00800           0
     10637 MEMB     74       DOPC     C29      CEL1    -0.150000       12.0110           0
     10638 MEMB     74       DOPC     H9R      HEL1     0.150000       1.00800           0
     10639 MEMB     74       DOPC     C210     CEL1    -0.150000       12.0110           0
     10640 MEMB     74       DOPC     H10R     HEL1     0.150000       1.00800           0
     10641 MEMB     74       DOPC     C211     CTL2    -0.180000       12.0110           0
     10642 MEMB     74       DOPC     H11R     HAL2     0.900000E-01   1.00800           0
     10643 MEMB     74       DOPC     H11S     HAL2     0.900000E-01   1.00800           0
     10644 MEMB     74       DOPC     C212     CTL2    -0.180000       12.0110           0
     10645 MEMB     74       DOPC     H12R     HAL2     0.900000E-01   1.00800           0
     10646 MEMB     74       DOPC     H12S     HAL2     0.900000E-01   1.00800           0
     10647 MEMB     74       DOPC     C213     CTL2    -0.180000       12.0110           0
     10648 MEMB     74       DOPC     H13R     HAL2     0.900000E-01   1.00800           0
     10649 MEMB     74       DOPC     H13S     HAL2     0.900000E-01   1.00800           0
     10650 MEMB     74       DOPC     C214     CTL2    -0.180000       12.0110           0
     10651 MEMB     74       DOPC     H14R     HAL2     0.900000E-01   1.00800           0
     10652 MEMB     74       DOPC     H14S     HAL2     0.900000E-01   1.00800           0
     10653 MEMB     74       DOPC     C215     CTL2    -0.180000       12.0110           0
     10654 MEMB     74       DOPC     H15R     HAL2     0.900000E-01   1.00800           0
     10655 MEMB     74       DOPC     H15S     HAL2     0.900000E-01   1.00800           0
     10656 MEMB     74       DOPC     C216     CTL2    -0.180000       12.0110           0
     10657 MEMB     74       DOPC     H16R     HAL2     0.900000E-01   1.00800           0
     10658 MEMB     74       DOPC     H16S     HAL2     0.900000E-01   1.00800           0
     10659 MEMB     74       DOPC     C217     CTL2    -0.180000       12.0110           0
     10660 MEMB     74       DOPC     H17R     HAL2     0.900000E-01   1.00800           0
     10661 MEMB     74       DOPC     H17S     HAL2     0.900000E-01   1.00800           0
     10662 MEMB     74       DOPC     C218     CTL3    -0.270000       12.0110           0
     10663 MEMB     74       DOPC     H18R     HAL3     0.900000E-01   1.00800           0
     10664 MEMB     74       DOPC     H18S     HAL3     0.900000E-01   1.00800           0
     10665 MEMB     74       DOPC     H18T     HAL3     0.900000E-01   1.00800           0
     10666 MEMB     74       DOPC     C33      CTL2    -0.180000       12.0110           0
     10667 MEMB     74       DOPC     H3X      HAL2     0.900000E-01   1.00800           0
     10668 MEMB     74       DOPC     H3Y      HAL2     0.900000E-01   1.00800           0
     10669 MEMB     74       DOPC     C34      CTL2    -0.180000       12.0110           0
     10670 MEMB     74       DOPC     H4X      HAL2     0.900000E-01   1.00800           0
     10671 MEMB     74       DOPC     H4Y      HAL2     0.900000E-01   1.00800           0
     10672 MEMB     74       DOPC     C35      CTL2    -0.180000       12.0110           0
     10673 MEMB     74       DOPC     H5X      HAL2     0.900000E-01   1.00800           0
     10674 MEMB     74       DOPC     H5Y      HAL2     0.900000E-01   1.00800           0
     10675 MEMB     74       DOPC     C36      CTL2    -0.180000       12.0110           0
     10676 MEMB     74       DOPC     H6X      HAL2     0.900000E-01   1.00800           0
     10677 MEMB     74       DOPC     H6Y      HAL2     0.900000E-01   1.00800           0
     10678 MEMB     74       DOPC     C37      CTL2    -0.180000       12.0110           0
     10679 MEMB     74       DOPC     H7X      HAL2     0.900000E-01   1.00800           0
     10680 MEMB     74       DOPC     H7Y      HAL2     0.900000E-01   1.00800           0
     10681 MEMB     74       DOPC     C38      CTL2    -0.180000       12.0110           0
     10682 MEMB     74       DOPC     H8X      HAL2     0.900000E-01   1.00800           0
     10683 MEMB     74       DOPC     H8Y      HAL2     0.900000E-01   1.00800           0
     10684 MEMB     74       DOPC     C39      CEL1    -0.150000       12.0110           0
     10685 MEMB     74       DOPC     H9X      HEL1     0.150000       1.00800           0
     10686 MEMB     74       DOPC     C310     CEL1    -0.150000       12.0110           0
     10687 MEMB     74       DOPC     H10X     HEL1     0.150000       1.00800           0
     10688 MEMB     74       DOPC     C311     CTL2    -0.180000       12.0110           0
     10689 MEMB     74       DOPC     H11X     HAL2     0.900000E-01   1.00800           0
     10690 MEMB     74       DOPC     H11Y     HAL2     0.900000E-01   1.00800           0
     10691 MEMB     74       DOPC     C312     CTL2    -0.180000       12.0110           0
     10692 MEMB     74       DOPC     H12X     HAL2     0.900000E-01   1.00800           0
     10693 MEMB     74       DOPC     H12Y     HAL2     0.900000E-01   1.00800           0
     10694 MEMB     74       DOPC     C313     CTL2    -0.180000       12.0110           0
     10695 MEMB     74       DOPC     H13X     HAL2     0.900000E-01   1.00800           0
     10696 MEMB     74       DOPC     H13Y     HAL2     0.900000E-01   1.00800           0
     10697 MEMB     74       DOPC     C314     CTL2    -0.180000       12.0110           0
     10698 MEMB     74       DOPC     H14X     HAL2     0.900000E-01   1.00800           0
     10699 MEMB     74       DOPC     H14Y     HAL2     0.900000E-01   1.00800           0
     10700 MEMB     74       DOPC     C315     CTL2    -0.180000       12.0110           0
     10701 MEMB     74       DOPC     H15X     HAL2     0.900000E-01   1.00800           0
     10702 MEMB     74       DOPC     H15Y     HAL2     0.900000E-01   1.00800           0
     10703 MEMB     74       DOPC     C316     CTL2    -0.180000       12.0110           0
     10704 MEMB     74       DOPC     H16X     HAL2     0.900000E-01   1.00800           0
     10705 MEMB     74       DOPC     H16Y     HAL2     0.900000E-01   1.00800           0
     10706 MEMB     74       DOPC     C317     CTL2    -0.180000       12.0110           0
     10707 MEMB     74       DOPC     H17X     HAL2     0.900000E-01   1.00800           0
     10708 MEMB     74       DOPC     H17Y     HAL2     0.900000E-01   1.00800           0
     10709 MEMB     74       DOPC     C318     CTL3    -0.270000       12.0110           0
     10710 MEMB     74       DOPC     H18X     HAL3     0.900000E-01   1.00800           0
     10711 MEMB     74       DOPC     H18Y     HAL3     0.900000E-01   1.00800           0
     10712 MEMB     74       DOPC     H18Z     HAL3     0.900000E-01   1.00800           0
     10713 MEMB     75       DOPC     N        NTL     -0.600000       14.0070           0
     10714 MEMB     75       DOPC     C12      CTL2    -0.100000       12.0110           0
     10715 MEMB     75       DOPC     H12A     HL       0.250000       1.00800           0
     10716 MEMB     75       DOPC     H12B     HL       0.250000       1.00800           0
     10717 MEMB     75       DOPC     C13      CTL5    -0.350000       12.0110           0
     10718 MEMB     75       DOPC     H13A     HL       0.250000       1.00800           0
     10719 MEMB     75       DOPC     H13B     HL       0.250000       1.00800           0
     10720 MEMB     75       DOPC     H13C     HL       0.250000       1.00800           0
     10721 MEMB     75       DOPC     C14      CTL5    -0.350000       12.0110           0
     10722 MEMB     75       DOPC     H14A     HL       0.250000       1.00800           0
     10723 MEMB     75       DOPC     H14B     HL       0.250000       1.00800           0
     10724 MEMB     75       DOPC     H14C     HL       0.250000       1.00800           0
     10725 MEMB     75       DOPC     C15      CTL5    -0.350000       12.0110           0
     10726 MEMB     75       DOPC     H15A     HL       0.250000       1.00800           0
     10727 MEMB     75       DOPC     H15B     HL       0.250000       1.00800           0
     10728 MEMB     75       DOPC     H15C     HL       0.250000       1.00800           0
     10729 MEMB     75       DOPC     C11      CTL2    -0.800000E-01   12.0110           0
     10730 MEMB     75       DOPC     H11A     HAL2     0.900000E-01   1.00800           0
     10731 MEMB     75       DOPC     H11B     HAL2     0.900000E-01   1.00800           0
     10732 MEMB     75       DOPC     P        PL        1.50000       30.9740           0
     10733 MEMB     75       DOPC     O13      O2L     -0.780000       15.9994           0
     10734 MEMB     75       DOPC     O14      O2L     -0.780000       15.9994           0
     10735 MEMB     75       DOPC     O12      OSLP    -0.570000       15.9994           0
     10736 MEMB     75       DOPC     O11      OSLP    -0.570000       15.9994           0
     10737 MEMB     75       DOPC     C1       CTL2    -0.800000E-01   12.0110           0
     10738 MEMB     75       DOPC     HA       HAL2     0.900000E-01   1.00800           0
     10739 MEMB     75       DOPC     HB       HAL2     0.900000E-01   1.00800           0
     10740 MEMB     75       DOPC     C2       CTL1     0.170000       12.0110           0
     10741 MEMB     75       DOPC     HS       HAL1     0.900000E-01   1.00800           0
     10742 MEMB     75       DOPC     O21      OSL     -0.490000       15.9994           0
     10743 MEMB     75       DOPC     C21      CL       0.900000       12.0110           0
     10744 MEMB     75       DOPC     O22      OBL     -0.630000       15.9994           0
     10745 MEMB     75       DOPC     C22      CTL2    -0.220000       12.0110           0
     10746 MEMB     75       DOPC     H2R      HAL2     0.900000E-01   1.00800           0
     10747 MEMB     75       DOPC     H2S      HAL2     0.900000E-01   1.00800           0
     10748 MEMB     75       DOPC     C3       CTL2     0.800000E-01   12.0110           0
     10749 MEMB     75       DOPC     HX       HAL2     0.900000E-01   1.00800           0
     10750 MEMB     75       DOPC     HY       HAL2     0.900000E-01   1.00800           0
     10751 MEMB     75       DOPC     O31      OSL     -0.490000       15.9994           0
     10752 MEMB     75       DOPC     C31      CL       0.900000       12.0110           0
     10753 MEMB     75       DOPC     O32      OBL     -0.630000       15.9994           0
     10754 MEMB     75       DOPC     C32      CTL2    -0.220000       12.0110           0
     10755 MEMB     75       DOPC     H2X      HAL2     0.900000E-01   1.00800           0
     10756 MEMB     75       DOPC     H2Y      HAL2     0.900000E-01   1.00800           0
     10757 MEMB     75       DOPC     C23      CTL2    -0.180000       12.0110           0
     10758 MEMB     75       DOPC     H3R      HAL2     0.900000E-01   1.00800           0
     10759 MEMB     75       DOPC     H3S      HAL2     0.900000E-01   1.00800           0
     10760 MEMB     75       DOPC     C24      CTL2    -0.180000       12.0110           0
     10761 MEMB     75       DOPC     H4R      HAL2     0.900000E-01   1.00800           0
     10762 MEMB     75       DOPC     H4S      HAL2     0.900000E-01   1.00800           0
     10763 MEMB     75       DOPC     C25      CTL2    -0.180000       12.0110           0
     10764 MEMB     75       DOPC     H5R      HAL2     0.900000E-01   1.00800           0
     10765 MEMB     75       DOPC     H5S      HAL2     0.900000E-01   1.00800           0
     10766 MEMB     75       DOPC     C26      CTL2    -0.180000       12.0110           0
     10767 MEMB     75       DOPC     H6R      HAL2     0.900000E-01   1.00800           0
     10768 MEMB     75       DOPC     H6S      HAL2     0.900000E-01   1.00800           0
     10769 MEMB     75       DOPC     C27      CTL2    -0.180000       12.0110           0
     10770 MEMB     75       DOPC     H7R      HAL2     0.900000E-01   1.00800           0
     10771 MEMB     75       DOPC     H7S      HAL2     0.900000E-01   1.00800           0
     10772 MEMB     75       DOPC     C28      CTL2    -0.180000       12.0110           0
     10773 MEMB     75       DOPC     H8R      HAL2     0.900000E-01   1.00800           0
     10774 MEMB     75       DOPC     H8S      HAL2     0.900000E-01   1.00800           0
     10775 MEMB     75       DOPC     C29      CEL1    -0.150000       12.0110           0
     10776 MEMB     75       DOPC     H9R      HEL1     0.150000       1.00800           0
     10777 MEMB     75       DOPC     C210     CEL1    -0.150000       12.0110           0
     10778 MEMB     75       DOPC     H10R     HEL1     0.150000       1.00800           0
     10779 MEMB     75       DOPC     C211     CTL2    -0.180000       12.0110           0
     10780 MEMB     75       DOPC     H11R     HAL2     0.900000E-01   1.00800           0
     10781 MEMB     75       DOPC     H11S     HAL2     0.900000E-01   1.00800           0
     10782 MEMB     75       DOPC     C212     CTL2    -0.180000       12.0110           0
     10783 MEMB     75       DOPC     H12R     HAL2     0.900000E-01   1.00800           0
     10784 MEMB     75       DOPC     H12S     HAL2     0.900000E-01   1.00800           0
     10785 MEMB     75       DOPC     C213     CTL2    -0.180000       12.0110           0
     10786 MEMB     75       DOPC     H13R     HAL2     0.900000E-01   1.00800           0
     10787 MEMB     75       DOPC     H13S     HAL2     0.900000E-01   1.00800           0
     10788 MEMB     75       DOPC     C214     CTL2    -0.180000       12.0110           0
     10789 MEMB     75       DOPC     H14R     HAL2     0.900000E-01   1.00800           0
     10790 MEMB     75       DOPC     H14S     HAL2     0.900000E-01   1.00800           0
     10791 MEMB     75       DOPC     C215     CTL2    -0.180000       12.0110           0
     10792 MEMB     75       DOPC     H15R     HAL2     0.900000E-01   1.00800           0
     10793 MEMB     75       DOPC     H15S     HAL2     0.900000E-01   1.00800           0
     10794 MEMB     75       DOPC     C216     CTL2    -0.180000       12.0110           0
     10795 MEMB     75       DOPC     H16R     HAL2     0.900000E-01   1.00800           0
     10796 MEMB     75       DOPC     H16S     HAL2     0.900000E-01   1.00800           0
     10797 MEMB     75       DOPC     C217     CTL2    -0.180000       12.0110           0
     10798 MEMB     75       DOPC     H17R     HAL2     0.900000E-01   1.00800           0
     10799 MEMB     75       DOPC     H17S     HAL2     0.900000E-01   1.00800           0
     10800 MEMB     75       DOPC     C218     CTL3    -0.270000       12.0110           0
     10801 MEMB     75       DOPC     H18R     HAL3     0.900000E-01   1.00800           0
     10802 MEMB     75       DOPC     H18S     HAL3     0.900000E-01   1.00800           0
     10803 MEMB     75       DOPC     H18T     HAL3     0.900000E-01   1.00800           0
     10804 MEMB     75       DOPC     C33      CTL2    -0.180000       12.0110           0
     10805 MEMB     75       DOPC     H3X      HAL2     0.900000E-01   1.00800           0
     10806 MEMB     75       DOPC     H3Y      HAL2     0.900000E-01   1.00800           0
     10807 MEMB     75       DOPC     C34      CTL2    -0.180000       12.0110           0
     10808 MEMB     75       DOPC     H4X      HAL2     0.900000E-01   1.00800           0
     10809 MEMB     75       DOPC     H4Y      HAL2     0.900000E-01   1.00800           0
     10810 MEMB     75       DOPC     C35      CTL2    -0.180000       12.0110           0
     10811 MEMB     75       DOPC     H5X      HAL2     0.900000E-01   1.00800           0
     10812 MEMB     75       DOPC     H5Y      HAL2     0.900000E-01   1.00800           0
     10813 MEMB     75       DOPC     C36      CTL2    -0.180000       12.0110           0
     10814 MEMB     75       DOPC     H6X      HAL2     0.900000E-01   1.00800           0
     10815 MEMB     75       DOPC     H6Y      HAL2     0.900000E-01   1.00800           0
     10816 MEMB     75       DOPC     C37      CTL2    -0.180000       12.0110           0
     10817 MEMB     75       DOPC     H7X      HAL2     0.900000E-01   1.00800           0
     10818 MEMB     75       DOPC     H7Y      HAL2     0.900000E-01   1.00800           0
     10819 MEMB     75       DOPC     C38      CTL2    -0.180000       12.0110           0
     10820 MEMB     75       DOPC     H8X      HAL2     0.900000E-01   1.00800           0
     10821 MEMB     75       DOPC     H8Y      HAL2     0.900000E-01   1.00800           0
     10822 MEMB     75       DOPC     C39      CEL1    -0.150000       12.0110           0
     10823 MEMB     75       DOPC     H9X      HEL1     0.150000       1.00800           0
     10824 MEMB     75       DOPC     C310     CEL1    -0.150000       12.0110           0
     10825 MEMB     75       DOPC     H10X     HEL1     0.150000       1.00800           0
     10826 MEMB     75       DOPC     C311     CTL2    -0.180000       12.0110           0
     10827 MEMB     75       DOPC     H11X     HAL2     0.900000E-01   1.00800           0
     10828 MEMB     75       DOPC     H11Y     HAL2     0.900000E-01   1.00800           0
     10829 MEMB     75       DOPC     C312     CTL2    -0.180000       12.0110           0
     10830 MEMB     75       DOPC     H12X     HAL2     0.900000E-01   1.00800           0
     10831 MEMB     75       DOPC     H12Y     HAL2     0.900000E-01   1.00800           0
     10832 MEMB     75       DOPC     C313     CTL2    -0.180000       12.0110           0
     10833 MEMB     75       DOPC     H13X     HAL2     0.900000E-01   1.00800           0
     10834 MEMB     75       DOPC     H13Y     HAL2     0.900000E-01   1.00800           0
     10835 MEMB     75       DOPC     C314     CTL2    -0.180000       12.0110           0
     10836 MEMB     75       DOPC     H14X     HAL2     0.900000E-01   1.00800           0
     10837 MEMB     75       DOPC     H14Y     HAL2     0.900000E-01   1.00800           0
     10838 MEMB     75       DOPC     C315     CTL2    -0.180000       12.0110           0
     10839 MEMB     75       DOPC     H15X     HAL2     0.900000E-01   1.00800           0
     10840 MEMB     75       DOPC     H15Y     HAL2     0.900000E-01   1.00800           0
     10841 MEMB     75       DOPC     C316     CTL2    -0.180000       12.0110           0
     10842 MEMB     75       DOPC     H16X     HAL2     0.900000E-01   1.00800           0
     10843 MEMB     75       DOPC     H16Y     HAL2     0.900000E-01   1.00800           0
     10844 MEMB     75       DOPC     C317     CTL2    -0.180000       12.0110           0
     10845 MEMB     75       DOPC     H17X     HAL2     0.900000E-01   1.00800           0
     10846 MEMB     75       DOPC     H17Y     HAL2     0.900000E-01   1.00800           0
     10847 MEMB     75       DOPC     C318     CTL3    -0.270000       12.0110           0
     10848 MEMB     75       DOPC     H18X     HAL3     0.900000E-01   1.00800           0
     10849 MEMB     75       DOPC     H18Y     HAL3     0.900000E-01   1.00800           0
     10850 MEMB     75       DOPC     H18Z     HAL3     0.900000E-01   1.00800           0
     10851 MEMB     76       DOPC     N        NTL     -0.600000       14.0070           0
     10852 MEMB     76       DOPC     C12      CTL2    -0.100000       12.0110           0
     10853 MEMB     76       DOPC     H12A     HL       0.250000       1.00800           0
     10854 MEMB     76       DOPC     H12B     HL       0.250000       1.00800           0
     10855 MEMB     76       DOPC     C13      CTL5    -0.350000       12.0110           0
     10856 MEMB     76       DOPC     H13A     HL       0.250000       1.00800           0
     10857 MEMB     76       DOPC     H13B     HL       0.250000       1.00800           0
     10858 MEMB     76       DOPC     H13C     HL       0.250000       1.00800           0
     10859 MEMB     76       DOPC     C14      CTL5    -0.350000       12.0110           0
     10860 MEMB     76       DOPC     H14A     HL       0.250000       1.00800           0
     10861 MEMB     76       DOPC     H14B     HL       0.250000       1.00800           0
     10862 MEMB     76       DOPC     H14C     HL       0.250000       1.00800           0
     10863 MEMB     76       DOPC     C15      CTL5    -0.350000       12.0110           0
     10864 MEMB     76       DOPC     H15A     HL       0.250000       1.00800           0
     10865 MEMB     76       DOPC     H15B     HL       0.250000       1.00800           0
     10866 MEMB     76       DOPC     H15C     HL       0.250000       1.00800           0
     10867 MEMB     76       DOPC     C11      CTL2    -0.800000E-01   12.0110           0
     10868 MEMB     76       DOPC     H11A     HAL2     0.900000E-01   1.00800           0
     10869 MEMB     76       DOPC     H11B     HAL2     0.900000E-01   1.00800           0
     10870 MEMB     76       DOPC     P        PL        1.50000       30.9740           0
     10871 MEMB     76       DOPC     O13      O2L     -0.780000       15.9994           0
     10872 MEMB     76       DOPC     O14      O2L     -0.780000       15.9994           0
     10873 MEMB     76       DOPC     O12      OSLP    -0.570000       15.9994           0
     10874 MEMB     76       DOPC     O11      OSLP    -0.570000       15.9994           0
     10875 MEMB     76       DOPC     C1       CTL2    -0.800000E-01   12.0110           0
     10876 MEMB     76       DOPC     HA       HAL2     0.900000E-01   1.00800           0
     10877 MEMB     76       DOPC     HB       HAL2     0.900000E-01   1.00800           0
     10878 MEMB     76       DOPC     C2       CTL1     0.170000       12.0110           0
     10879 MEMB     76       DOPC     HS       HAL1     0.900000E-01   1.00800           0
     10880 MEMB     76       DOPC     O21      OSL     -0.490000       15.9994           0
     10881 MEMB     76       DOPC     C21      CL       0.900000       12.0110           0
     10882 MEMB     76       DOPC     O22      OBL     -0.630000       15.9994           0
     10883 MEMB     76       DOPC     C22      CTL2    -0.220000       12.0110           0
     10884 MEMB     76       DOPC     H2R      HAL2     0.900000E-01   1.00800           0
     10885 MEMB     76       DOPC     H2S      HAL2     0.900000E-01   1.00800           0
     10886 MEMB     76       DOPC     C3       CTL2     0.800000E-01   12.0110           0
     10887 MEMB     76       DOPC     HX       HAL2     0.900000E-01   1.00800           0
     10888 MEMB     76       DOPC     HY       HAL2     0.900000E-01   1.00800           0
     10889 MEMB     76       DOPC     O31      OSL     -0.490000       15.9994           0
     10890 MEMB     76       DOPC     C31      CL       0.900000       12.0110           0
     10891 MEMB     76       DOPC     O32      OBL     -0.630000       15.9994           0
     10892 MEMB     76       DOPC     C32      CTL2    -0.220000       12.0110           0
     10893 MEMB     76       DOPC     H2X      HAL2     0.900000E-01   1.00800           0
     10894 MEMB     76       DOPC     H2Y      HAL2     0.900000E-01   1.00800           0
     10895 MEMB     76       DOPC     C23      CTL2    -0.180000       12.0110           0
     10896 MEMB     76       DOPC     H3R      HAL2     0.900000E-01   1.00800           0
     10897 MEMB     76       DOPC     H3S      HAL2     0.900000E-01   1.00800           0
     10898 MEMB     76       DOPC     C24      CTL2    -0.180000       12.0110           0
     10899 MEMB     76       DOPC     H4R      HAL2     0.900000E-01   1.00800           0
     10900 MEMB     76       DOPC     H4S      HAL2     0.900000E-01   1.00800           0
     10901 MEMB     76       DOPC     C25      CTL2    -0.180000       12.0110           0
     10902 MEMB     76       DOPC     H5R      HAL2     0.900000E-01   1.00800           0
     10903 MEMB     76       DOPC     H5S      HAL2     0.900000E-01   1.00800           0
     10904 MEMB     76       DOPC     C26      CTL2    -0.180000       12.0110           0
     10905 MEMB     76       DOPC     H6R      HAL2     0.900000E-01   1.00800           0
     10906 MEMB     76       DOPC     H6S      HAL2     0.900000E-01   1.00800           0
     10907 MEMB     76       DOPC     C27      CTL2    -0.180000       12.0110           0
     10908 MEMB     76       DOPC     H7R      HAL2     0.900000E-01   1.00800           0
     10909 MEMB     76       DOPC     H7S      HAL2     0.900000E-01   1.00800           0
     10910 MEMB     76       DOPC     C28      CTL2    -0.180000       12.0110           0
     10911 MEMB     76       DOPC     H8R      HAL2     0.900000E-01   1.00800           0
     10912 MEMB     76       DOPC     H8S      HAL2     0.900000E-01   1.00800           0
     10913 MEMB     76       DOPC     C29      CEL1    -0.150000       12.0110           0
     10914 MEMB     76       DOPC     H9R      HEL1     0.150000       1.00800           0
     10915 MEMB     76       DOPC     C210     CEL1    -0.150000       12.0110           0
     10916 MEMB     76       DOPC     H10R     HEL1     0.150000       1.00800           0
     10917 MEMB     76       DOPC     C211     CTL2    -0.180000       12.0110           0
     10918 MEMB     76       DOPC     H11R     HAL2     0.900000E-01   1.00800           0
     10919 MEMB     76       DOPC     H11S     HAL2     0.900000E-01   1.00800           0
     10920 MEMB     76       DOPC     C212     CTL2    -0.180000       12.0110           0
     10921 MEMB     76       DOPC     H12R     HAL2     0.900000E-01   1.00800           0
     10922 MEMB     76       DOPC     H12S     HAL2     0.900000E-01   1.00800           0
     10923 MEMB     76       DOPC     C213     CTL2    -0.180000       12.0110           0
     10924 MEMB     76       DOPC     H13R     HAL2     0.900000E-01   1.00800           0
     10925 MEMB     76       DOPC     H13S     HAL2     0.900000E-01   1.00800           0
     10926 MEMB     76       DOPC     C214     CTL2    -0.180000       12.0110           0
     10927 MEMB     76       DOPC     H14R     HAL2     0.900000E-01   1.00800           0
     10928 MEMB     76       DOPC     H14S     HAL2     0.900000E-01   1.00800           0
     10929 MEMB     76       DOPC     C215     CTL2    -0.180000       12.0110           0
     10930 MEMB     76       DOPC     H15R     HAL2     0.900000E-01   1.00800           0
     10931 MEMB     76       DOPC     H15S     HAL2     0.900000E-01   1.00800           0
     10932 MEMB     76       DOPC     C216     CTL2    -0.180000       12.0110           0
     10933 MEMB     76       DOPC     H16R     HAL2     0.900000E-01   1.00800           0
     10934 MEMB     76       DOPC     H16S     HAL2     0.900000E-01   1.00800           0
     10935 MEMB     76       DOPC     C217     CTL2    -0.180000       12.0110           0
     10936 MEMB     76       DOPC     H17R     HAL2     0.900000E-01   1.00800           0
     10937 MEMB     76       DOPC     H17S     HAL2     0.900000E-01   1.00800           0
     10938 MEMB     76       DOPC     C218     CTL3    -0.270000       12.0110           0
     10939 MEMB     76       DOPC     H18R     HAL3     0.900000E-01   1.00800           0
     10940 MEMB     76       DOPC     H18S     HAL3     0.900000E-01   1.00800           0
     10941 MEMB     76       DOPC     H18T     HAL3     0.900000E-01   1.00800           0
     10942 MEMB     76       DOPC     C33      CTL2    -0.180000       12.0110           0
     10943 MEMB     76       DOPC     H3X      HAL2     0.900000E-01   1.00800           0
     10944 MEMB     76       DOPC     H3Y      HAL2     0.900000E-01   1.00800           0
     10945 MEMB     76       DOPC     C34      CTL2    -0.180000       12.0110           0
     10946 MEMB     76       DOPC     H4X      HAL2     0.900000E-01   1.00800           0
     10947 MEMB     76       DOPC     H4Y      HAL2     0.900000E-01   1.00800           0
     10948 MEMB     76       DOPC     C35      CTL2    -0.180000       12.0110           0
     10949 MEMB     76       DOPC     H5X      HAL2     0.900000E-01   1.00800           0
     10950 MEMB     76       DOPC     H5Y      HAL2     0.900000E-01   1.00800           0
     10951 MEMB     76       DOPC     C36      CTL2    -0.180000       12.0110           0
     10952 MEMB     76       DOPC     H6X      HAL2     0.900000E-01   1.00800           0
     10953 MEMB     76       DOPC     H6Y      HAL2     0.900000E-01   1.00800           0
     10954 MEMB     76       DOPC     C37      CTL2    -0.180000       12.0110           0
     10955 MEMB     76       DOPC     H7X      HAL2     0.900000E-01   1.00800           0
     10956 MEMB     76       DOPC     H7Y      HAL2     0.900000E-01   1.00800           0
     10957 MEMB     76       DOPC     C38      CTL2    -0.180000       12.0110           0
     10958 MEMB     76       DOPC     H8X      HAL2     0.900000E-01   1.00800           0
     10959 MEMB     76       DOPC     H8Y      HAL2     0.900000E-01   1.00800           0
     10960 MEMB     76       DOPC     C39      CEL1    -0.150000       12.0110           0
     10961 MEMB     76       DOPC     H9X      HEL1     0.150000       1.00800           0
     10962 MEMB     76       DOPC     C310     CEL1    -0.150000       12.0110           0
     10963 MEMB     76       DOPC     H10X     HEL1     0.150000       1.00800           0
     10964 MEMB     76       DOPC     C311     CTL2    -0.180000       12.0110           0
     10965 MEMB     76       DOPC     H11X     HAL2     0.900000E-01   1.00800           0
     10966 MEMB     76       DOPC     H11Y     HAL2     0.900000E-01   1.00800           0
     10967 MEMB     76       DOPC     C312     CTL2    -0.180000       12.0110           0
     10968 MEMB     76       DOPC     H12X     HAL2     0.900000E-01   1.00800           0
     10969 MEMB     76       DOPC     H12Y     HAL2     0.900000E-01   1.00800           0
     10970 MEMB     76       DOPC     C313     CTL2    -0.180000       12.0110           0
     10971 MEMB     76       DOPC     H13X     HAL2     0.900000E-01   1.00800           0
     10972 MEMB     76       DOPC     H13Y     HAL2     0.900000E-01   1.00800           0
     10973 MEMB     76       DOPC     C314     CTL2    -0.180000       12.0110           0
     10974 MEMB     76       DOPC     H14X     HAL2     0.900000E-01   1.00800           0
     10975 MEMB     76       DOPC     H14Y     HAL2     0.900000E-01   1.00800           0
     10976 MEMB     76       DOPC     C315     CTL2    -0.180000       12.0110           0
     10977 MEMB     76       DOPC     H15X     HAL2     0.900000E-01   1.00800           0
     10978 MEMB     76       DOPC     H15Y     HAL2     0.900000E-01   1.00800           0
     10979 MEMB     76       DOPC     C316     CTL2    -0.180000       12.0110           0
     10980 MEMB     76       DOPC     H16X     HAL2     0.900000E-01   1.00800           0
     10981 MEMB     76       DOPC     H16Y     HAL2     0.900000E-01   1.00800           0
     10982 MEMB     76       DOPC     C317     CTL2    -0.180000       12.0110           0
     10983 MEMB     76       DOPC     H17X     HAL2     0.900000E-01   1.00800           0
     10984 MEMB     76       DOPC     H17Y     HAL2     0.900000E-01   1.00800           0
     10985 MEMB     76       DOPC     C318     CTL3    -0.270000       12.0110           0
     10986 MEMB     76       DOPC     H18X     HAL3     0.900000E-01   1.00800           0
     10987 MEMB     76       DOPC     H18Y     HAL3     0.900000E-01   1.00800           0
     10988 MEMB     76       DOPC     H18Z     HAL3     0.900000E-01   1.00800           0
     10989 MEMB     77       DOPC     N        NTL     -0.600000       14.0070           0
     10990 MEMB     77       DOPC     C12      CTL2    -0.100000       12.0110           0
     10991 MEMB     77       DOPC     H12A     HL       0.250000       1.00800           0
     10992 MEMB     77       DOPC     H12B     HL       0.250000       1.00800           0
     10993 MEMB     77       DOPC     C13      CTL5    -0.350000       12.0110           0
     10994 MEMB     77       DOPC     H13A     HL       0.250000       1.00800           0
     10995 MEMB     77       DOPC     H13B     HL       0.250000       1.00800           0
     10996 MEMB     77       DOPC     H13C     HL       0.250000       1.00800           0
     10997 MEMB     77       DOPC     C14      CTL5    -0.350000       12.0110           0
     10998 MEMB     77       DOPC     H14A     HL       0.250000       1.00800           0
     10999 MEMB     77       DOPC     H14B     HL       0.250000       1.00800           0
     11000 MEMB     77       DOPC     H14C     HL       0.250000       1.00800           0
     11001 MEMB     77       DOPC     C15      CTL5    -0.350000       12.0110           0
     11002 MEMB     77       DOPC     H15A     HL       0.250000       1.00800           0
     11003 MEMB     77       DOPC     H15B     HL       0.250000       1.00800           0
     11004 MEMB     77       DOPC     H15C     HL       0.250000       1.00800           0
     11005 MEMB     77       DOPC     C11      CTL2    -0.800000E-01   12.0110           0
     11006 MEMB     77       DOPC     H11A     HAL2     0.900000E-01   1.00800           0
     11007 MEMB     77       DOPC     H11B     HAL2     0.900000E-01   1.00800           0
     11008 MEMB     77       DOPC     P        PL        1.50000       30.9740           0
     11009 MEMB     77       DOPC     O13      O2L     -0.780000       15.9994           0
     11010 MEMB     77       DOPC     O14      O2L     -0.780000       15.9994           0
     11011 MEMB     77       DOPC     O12      OSLP    -0.570000       15.9994           0
     11012 MEMB     77       DOPC     O11      OSLP    -0.570000       15.9994           0
     11013 MEMB     77       DOPC     C1       CTL2    -0.800000E-01   12.0110           0
     11014 MEMB     77       DOPC     HA       HAL2     0.900000E-01   1.00800           0
     11015 MEMB     77       DOPC     HB       HAL2     0.900000E-01   1.00800           0
     11016 MEMB     77       DOPC     C2       CTL1     0.170000       12.0110           0
     11017 MEMB     77       DOPC     HS       HAL1     0.900000E-01   1.00800           0
     11018 MEMB     77       DOPC     O21      OSL     -0.490000       15.9994           0
     11019 MEMB     77       DOPC     C21      CL       0.900000       12.0110           0
     11020 MEMB     77       DOPC     O22      OBL     -0.630000       15.9994           0
     11021 MEMB     77       DOPC     C22      CTL2    -0.220000       12.0110           0
     11022 MEMB     77       DOPC     H2R      HAL2     0.900000E-01   1.00800           0
     11023 MEMB     77       DOPC     H2S      HAL2     0.900000E-01   1.00800           0
     11024 MEMB     77       DOPC     C3       CTL2     0.800000E-01   12.0110           0
     11025 MEMB     77       DOPC     HX       HAL2     0.900000E-01   1.00800           0
     11026 MEMB     77       DOPC     HY       HAL2     0.900000E-01   1.00800           0
     11027 MEMB     77       DOPC     O31      OSL     -0.490000       15.9994           0
     11028 MEMB     77       DOPC     C31      CL       0.900000       12.0110           0
     11029 MEMB     77       DOPC     O32      OBL     -0.630000       15.9994           0
     11030 MEMB     77       DOPC     C32      CTL2    -0.220000       12.0110           0
     11031 MEMB     77       DOPC     H2X      HAL2     0.900000E-01   1.00800           0
     11032 MEMB     77       DOPC     H2Y      HAL2     0.900000E-01   1.00800           0
     11033 MEMB     77       DOPC     C23      CTL2    -0.180000       12.0110           0
     11034 MEMB     77       DOPC     H3R      HAL2     0.900000E-01   1.00800           0
     11035 MEMB     77       DOPC     H3S      HAL2     0.900000E-01   1.00800           0
     11036 MEMB     77       DOPC     C24      CTL2    -0.180000       12.0110           0
     11037 MEMB     77       DOPC     H4R      HAL2     0.900000E-01   1.00800           0
     11038 MEMB     77       DOPC     H4S      HAL2     0.900000E-01   1.00800           0
     11039 MEMB     77       DOPC     C25      CTL2    -0.180000       12.0110           0
     11040 MEMB     77       DOPC     H5R      HAL2     0.900000E-01   1.00800           0
     11041 MEMB     77       DOPC     H5S      HAL2     0.900000E-01   1.00800           0
     11042 MEMB     77       DOPC     C26      CTL2    -0.180000       12.0110           0
     11043 MEMB     77       DOPC     H6R      HAL2     0.900000E-01   1.00800           0
     11044 MEMB     77       DOPC     H6S      HAL2     0.900000E-01   1.00800           0
     11045 MEMB     77       DOPC     C27      CTL2    -0.180000       12.0110           0
     11046 MEMB     77       DOPC     H7R      HAL2     0.900000E-01   1.00800           0
     11047 MEMB     77       DOPC     H7S      HAL2     0.900000E-01   1.00800           0
     11048 MEMB     77       DOPC     C28      CTL2    -0.180000       12.0110           0
     11049 MEMB     77       DOPC     H8R      HAL2     0.900000E-01   1.00800           0
     11050 MEMB     77       DOPC     H8S      HAL2     0.900000E-01   1.00800           0
     11051 MEMB     77       DOPC     C29      CEL1    -0.150000       12.0110           0
     11052 MEMB     77       DOPC     H9R      HEL1     0.150000       1.00800           0
     11053 MEMB     77       DOPC     C210     CEL1    -0.150000       12.0110           0
     11054 MEMB     77       DOPC     H10R     HEL1     0.150000       1.00800           0
     11055 MEMB     77       DOPC     C211     CTL2    -0.180000       12.0110           0
     11056 MEMB     77       DOPC     H11R     HAL2     0.900000E-01   1.00800           0
     11057 MEMB     77       DOPC     H11S     HAL2     0.900000E-01   1.00800           0
     11058 MEMB     77       DOPC     C212     CTL2    -0.180000       12.0110           0
     11059 MEMB     77       DOPC     H12R     HAL2     0.900000E-01   1.00800           0
     11060 MEMB     77       DOPC     H12S     HAL2     0.900000E-01   1.00800           0
     11061 MEMB     77       DOPC     C213     CTL2    -0.180000       12.0110           0
     11062 MEMB     77       DOPC     H13R     HAL2     0.900000E-01   1.00800           0
     11063 MEMB     77       DOPC     H13S     HAL2     0.900000E-01   1.00800           0
     11064 MEMB     77       DOPC     C214     CTL2    -0.180000       12.0110           0
     11065 MEMB     77       DOPC     H14R     HAL2     0.900000E-01   1.00800           0
     11066 MEMB     77       DOPC     H14S     HAL2     0.900000E-01   1.00800           0
     11067 MEMB     77       DOPC     C215     CTL2    -0.180000       12.0110           0
     11068 MEMB     77       DOPC     H15R     HAL2     0.900000E-01   1.00800           0
     11069 MEMB     77       DOPC     H15S     HAL2     0.900000E-01   1.00800           0
     11070 MEMB     77       DOPC     C216     CTL2    -0.180000       12.0110           0
     11071 MEMB     77       DOPC     H16R     HAL2     0.900000E-01   1.00800           0
     11072 MEMB     77       DOPC     H16S     HAL2     0.900000E-01   1.00800           0
     11073 MEMB     77       DOPC     C217     CTL2    -0.180000       12.0110           0
     11074 MEMB     77       DOPC     H17R     HAL2     0.900000E-01   1.00800           0
     11075 MEMB     77       DOPC     H17S     HAL2     0.900000E-01   1.00800           0
     11076 MEMB     77       DOPC     C218     CTL3    -0.270000       12.0110           0
     11077 MEMB     77       DOPC     H18R     HAL3     0.900000E-01   1.00800           0
     11078 MEMB     77       DOPC     H18S     HAL3     0.900000E-01   1.00800           0
     11079 MEMB     77       DOPC     H18T     HAL3     0.900000E-01   1.00800           0
     11080 MEMB     77       DOPC     C33      CTL2    -0.180000       12.0110           0
     11081 MEMB     77       DOPC     H3X      HAL2     0.900000E-01   1.00800           0
     11082 MEMB     77       DOPC     H3Y      HAL2     0.900000E-01   1.00800           0
     11083 MEMB     77       DOPC     C34      CTL2    -0.180000       12.0110           0
     11084 MEMB     77       DOPC     H4X      HAL2     0.900000E-01   1.00800           0
     11085 MEMB     77       DOPC     H4Y      HAL2     0.900000E-01   1.00800           0
     11086 MEMB     77       DOPC     C35      CTL2    -0.180000       12.0110           0
     11087 MEMB     77       DOPC     H5X      HAL2     0.900000E-01   1.00800           0
     11088 MEMB     77       DOPC     H5Y      HAL2     0.900000E-01   1.00800           0
     11089 MEMB     77       DOPC     C36      CTL2    -0.180000       12.0110           0
     11090 MEMB     77       DOPC     H6X      HAL2     0.900000E-01   1.00800           0
     11091 MEMB     77       DOPC     H6Y      HAL2     0.900000E-01   1.00800           0
     11092 MEMB     77       DOPC     C37      CTL2    -0.180000       12.0110           0
     11093 MEMB     77       DOPC     H7X      HAL2     0.900000E-01   1.00800           0
     11094 MEMB     77       DOPC     H7Y      HAL2     0.900000E-01   1.00800           0
     11095 MEMB     77       DOPC     C38      CTL2    -0.180000       12.0110           0
     11096 MEMB     77       DOPC     H8X      HAL2     0.900000E-01   1.00800           0
     11097 MEMB     77       DOPC     H8Y      HAL2     0.900000E-01   1.00800           0
     11098 MEMB     77       DOPC     C39      CEL1    -0.150000       12.0110           0
     11099 MEMB     77       DOPC     H9X      HEL1     0.150000       1.00800           0
     11100 MEMB     77       DOPC     C310     CEL1    -0.150000       12.0110           0
     11101 MEMB     77       DOPC     H10X     HEL1     0.150000       1.00800           0
     11102 MEMB     77       DOPC     C311     CTL2    -0.180000       12.0110           0
     11103 MEMB     77       DOPC     H11X     HAL2     0.900000E-01   1.00800           0
     11104 MEMB     77       DOPC     H11Y     HAL2     0.900000E-01   1.00800           0
     11105 MEMB     77       DOPC     C312     CTL2    -0.180000       12.0110           0
     11106 MEMB     77       DOPC     H12X     HAL2     0.900000E-01   1.00800           0
     11107 MEMB     77       DOPC     H12Y     HAL2     0.900000E-01   1.00800           0
     11108 MEMB     77       DOPC     C313     CTL2    -0.180000       12.0110           0
     11109 MEMB     77       DOPC     H13X     HAL2     0.900000E-01   1.00800           0
     11110 MEMB     77       DOPC     H13Y     HAL2     0.900000E-01   1.00800           0
     11111 MEMB     77       DOPC     C314     CTL2    -0.180000       12.0110           0
     11112 MEMB     77       DOPC     H14X     HAL2     0.900000E-01   1.00800           0
     11113 MEMB     77       DOPC     H14Y     HAL2     0.900000E-01   1.00800           0
     11114 MEMB     77       DOPC     C315     CTL2    -0.180000       12.0110           0
     11115 MEMB     77       DOPC     H15X     HAL2     0.900000E-01   1.00800           0
     11116 MEMB     77       DOPC     H15Y     HAL2     0.900000E-01   1.00800           0
     11117 MEMB     77       DOPC     C316     CTL2    -0.180000       12.0110           0
     11118 MEMB     77       DOPC     H16X     HAL2     0.900000E-01   1.00800           0
     11119 MEMB     77       DOPC     H16Y     HAL2     0.900000E-01   1.00800           0
     11120 MEMB     77       DOPC     C317     CTL2    -0.180000       12.0110           0
     11121 MEMB     77       DOPC     H17X     HAL2     0.900000E-01   1.00800           0
     11122 MEMB     77       DOPC     H17Y     HAL2     0.900000E-01   1.00800           0
     11123 MEMB     77       DOPC     C318     CTL3    -0.270000       12.0110           0
     11124 MEMB     77       DOPC     H18X     HAL3     0.900000E-01   1.00800           0
     11125 MEMB     77       DOPC     H18Y     HAL3     0.900000E-01   1.00800           0
     11126 MEMB     77       DOPC     H18Z     HAL3     0.900000E-01   1.00800           0
     11127 MEMB     78       DOPC     N        NTL     -0.600000       14.0070           0
     11128 MEMB     78       DOPC     C12      CTL2    -0.100000       12.0110           0
     11129 MEMB     78       DOPC     H12A     HL       0.250000       1.00800           0
     11130 MEMB     78       DOPC     H12B     HL       0.250000       1.00800           0
     11131 MEMB     78       DOPC     C13      CTL5    -0.350000       12.0110           0
     11132 MEMB     78       DOPC     H13A     HL       0.250000       1.00800           0
     11133 MEMB     78       DOPC     H13B     HL       0.250000       1.00800           0
     11134 MEMB     78       DOPC     H13C     HL       0.250000       1.00800           0
     11135 MEMB     78       DOPC     C14      CTL5    -0.350000       12.0110           0
     11136 MEMB     78       DOPC     H14A     HL       0.250000       1.00800           0
     11137 MEMB     78       DOPC     H14B     HL       0.250000       1.00800           0
     11138 MEMB     78       DOPC     H14C     HL       0.250000       1.00800           0
     11139 MEMB     78       DOPC     C15      CTL5    -0.350000       12.0110           0
     11140 MEMB     78       DOPC     H15A     HL       0.250000       1.00800           0
     11141 MEMB     78       DOPC     H15B     HL       0.250000       1.00800           0
     11142 MEMB     78       DOPC     H15C     HL       0.250000       1.00800           0
     11143 MEMB     78       DOPC     C11      CTL2    -0.800000E-01   12.0110           0
     11144 MEMB     78       DOPC     H11A     HAL2     0.900000E-01   1.00800           0
     11145 MEMB     78       DOPC     H11B     HAL2     0.900000E-01   1.00800           0
     11146 MEMB     78       DOPC     P        PL        1.50000       30.9740           0
     11147 MEMB     78       DOPC     O13      O2L     -0.780000       15.9994           0
     11148 MEMB     78       DOPC     O14      O2L     -0.780000       15.9994           0
     11149 MEMB     78       DOPC     O12      OSLP    -0.570000       15.9994           0
     11150 MEMB     78       DOPC     O11      OSLP    -0.570000       15.9994           0
     11151 MEMB     78       DOPC     C1       CTL2    -0.800000E-01   12.0110           0
     11152 MEMB     78       DOPC     HA       HAL2     0.900000E-01   1.00800           0
     11153 MEMB     78       DOPC     HB       HAL2     0.900000E-01   1.00800           0
     11154 MEMB     78       DOPC     C2       CTL1     0.170000       12.0110           0
     11155 MEMB     78       DOPC     HS       HAL1     0.900000E-01   1.00800           0
     11156 MEMB     78       DOPC     O21      OSL     -0.490000       15.9994           0
     11157 MEMB     78       DOPC     C21      CL       0.900000       12.0110           0
     11158 MEMB     78       DOPC     O22      OBL     -0.630000       15.9994           0
     11159 MEMB     78       DOPC     C22      CTL2    -0.220000       12.0110           0
     11160 MEMB     78       DOPC     H2R      HAL2     0.900000E-01   1.00800           0
     11161 MEMB     78       DOPC     H2S      HAL2     0.900000E-01   1.00800           0
     11162 MEMB     78       DOPC     C3       CTL2     0.800000E-01   12.0110           0
     11163 MEMB     78       DOPC     HX       HAL2     0.900000E-01   1.00800           0
     11164 MEMB     78       DOPC     HY       HAL2     0.900000E-01   1.00800           0
     11165 MEMB     78       DOPC     O31      OSL     -0.490000       15.9994           0
     11166 MEMB     78       DOPC     C31      CL       0.900000       12.0110           0
     11167 MEMB     78       DOPC     O32      OBL     -0.630000       15.9994           0
     11168 MEMB     78       DOPC     C32      CTL2    -0.220000       12.0110           0
     11169 MEMB     78       DOPC     H2X      HAL2     0.900000E-01   1.00800           0
     11170 MEMB     78       DOPC     H2Y      HAL2     0.900000E-01   1.00800           0
     11171 MEMB     78       DOPC     C23      CTL2    -0.180000       12.0110           0
     11172 MEMB     78       DOPC     H3R      HAL2     0.900000E-01   1.00800           0
     11173 MEMB     78       DOPC     H3S      HAL2     0.900000E-01   1.00800           0
     11174 MEMB     78       DOPC     C24      CTL2    -0.180000       12.0110           0
     11175 MEMB     78       DOPC     H4R      HAL2     0.900000E-01   1.00800           0
     11176 MEMB     78       DOPC     H4S      HAL2     0.900000E-01   1.00800           0
     11177 MEMB     78       DOPC     C25      CTL2    -0.180000       12.0110           0
     11178 MEMB     78       DOPC     H5R      HAL2     0.900000E-01   1.00800           0
     11179 MEMB     78       DOPC     H5S      HAL2     0.900000E-01   1.00800           0
     11180 MEMB     78       DOPC     C26      CTL2    -0.180000       12.0110           0
     11181 MEMB     78       DOPC     H6R      HAL2     0.900000E-01   1.00800           0
     11182 MEMB     78       DOPC     H6S      HAL2     0.900000E-01   1.00800           0
     11183 MEMB     78       DOPC     C27      CTL2    -0.180000       12.0110           0
     11184 MEMB     78       DOPC     H7R      HAL2     0.900000E-01   1.00800           0
     11185 MEMB     78       DOPC     H7S      HAL2     0.900000E-01   1.00800           0
     11186 MEMB     78       DOPC     C28      CTL2    -0.180000       12.0110           0
     11187 MEMB     78       DOPC     H8R      HAL2     0.900000E-01   1.00800           0
     11188 MEMB     78       DOPC     H8S      HAL2     0.900000E-01   1.00800           0
     11189 MEMB     78       DOPC     C29      CEL1    -0.150000       12.0110           0
     11190 MEMB     78       DOPC     H9R      HEL1     0.150000       1.00800           0
     11191 MEMB     78       DOPC     C210     CEL1    -0.150000       12.0110           0
     11192 MEMB     78       DOPC     H10R     HEL1     0.150000       1.00800           0
     11193 MEMB     78       DOPC     C211     CTL2    -0.180000       12.0110           0
     11194 MEMB     78       DOPC     H11R     HAL2     0.900000E-01   1.00800           0
     11195 MEMB     78       DOPC     H11S     HAL2     0.900000E-01   1.00800           0
     11196 MEMB     78       DOPC     C212     CTL2    -0.180000       12.0110           0
     11197 MEMB     78       DOPC     H12R     HAL2     0.900000E-01   1.00800           0
     11198 MEMB     78       DOPC     H12S     HAL2     0.900000E-01   1.00800           0
     11199 MEMB     78       DOPC     C213     CTL2    -0.180000       12.0110           0
     11200 MEMB     78       DOPC     H13R     HAL2     0.900000E-01   1.00800           0
     11201 MEMB     78       DOPC     H13S     HAL2     0.900000E-01   1.00800           0
     11202 MEMB     78       DOPC     C214     CTL2    -0.180000       12.0110           0
     11203 MEMB     78       DOPC     H14R     HAL2     0.900000E-01   1.00800           0
     11204 MEMB     78       DOPC     H14S     HAL2     0.900000E-01   1.00800           0
     11205 MEMB     78       DOPC     C215     CTL2    -0.180000       12.0110           0
     11206 MEMB     78       DOPC     H15R     HAL2     0.900000E-01   1.00800           0
     11207 MEMB     78       DOPC     H15S     HAL2     0.900000E-01   1.00800           0
     11208 MEMB     78       DOPC     C216     CTL2    -0.180000       12.0110           0
     11209 MEMB     78       DOPC     H16R     HAL2     0.900000E-01   1.00800           0
     11210 MEMB     78       DOPC     H16S     HAL2     0.900000E-01   1.00800           0
     11211 MEMB     78       DOPC     C217     CTL2    -0.180000       12.0110           0
     11212 MEMB     78       DOPC     H17R     HAL2     0.900000E-01   1.00800           0
     11213 MEMB     78       DOPC     H17S     HAL2     0.900000E-01   1.00800           0
     11214 MEMB     78       DOPC     C218     CTL3    -0.270000       12.0110           0
     11215 MEMB     78       DOPC     H18R     HAL3     0.900000E-01   1.00800           0
     11216 MEMB     78       DOPC     H18S     HAL3     0.900000E-01   1.00800           0
     11217 MEMB     78       DOPC     H18T     HAL3     0.900000E-01   1.00800           0
     11218 MEMB     78       DOPC     C33      CTL2    -0.180000       12.0110           0
     11219 MEMB     78       DOPC     H3X      HAL2     0.900000E-01   1.00800           0
     11220 MEMB     78       DOPC     H3Y      HAL2     0.900000E-01   1.00800           0
     11221 MEMB     78       DOPC     C34      CTL2    -0.180000       12.0110           0
     11222 MEMB     78       DOPC     H4X      HAL2     0.900000E-01   1.00800           0
     11223 MEMB     78       DOPC     H4Y      HAL2     0.900000E-01   1.00800           0
     11224 MEMB     78       DOPC     C35      CTL2    -0.180000       12.0110           0
     11225 MEMB     78       DOPC     H5X      HAL2     0.900000E-01   1.00800           0
     11226 MEMB     78       DOPC     H5Y      HAL2     0.900000E-01   1.00800           0
     11227 MEMB     78       DOPC     C36      CTL2    -0.180000       12.0110           0
     11228 MEMB     78       DOPC     H6X      HAL2     0.900000E-01   1.00800           0
     11229 MEMB     78       DOPC     H6Y      HAL2     0.900000E-01   1.00800           0
     11230 MEMB     78       DOPC     C37      CTL2    -0.180000       12.0110           0
     11231 MEMB     78       DOPC     H7X      HAL2     0.900000E-01   1.00800           0
     11232 MEMB     78       DOPC     H7Y      HAL2     0.900000E-01   1.00800           0
     11233 MEMB     78       DOPC     C38      CTL2    -0.180000       12.0110           0
     11234 MEMB     78       DOPC     H8X      HAL2     0.900000E-01   1.00800           0
     11235 MEMB     78       DOPC     H8Y      HAL2     0.900000E-01   1.00800           0
     11236 MEMB     78       DOPC     C39      CEL1    -0.150000       12.0110           0
     11237 MEMB     78       DOPC     H9X      HEL1     0.150000       1.00800           0
     11238 MEMB     78       DOPC     C310     CEL1    -0.150000       12.0110           0
     11239 MEMB     78       DOPC     H10X     HEL1     0.150000       1.00800           0
     11240 MEMB     78       DOPC     C311     CTL2    -0.180000       12.0110           0
     11241 MEMB     78       DOPC     H11X     HAL2     0.900000E-01   1.00800           0
     11242 MEMB     78       DOPC     H11Y     HAL2     0.900000E-01   1.00800           0
     11243 MEMB     78       DOPC     C312     CTL2    -0.180000       12.0110           0
     11244 MEMB     78       DOPC     H12X     HAL2     0.900000E-01   1.00800           0
     11245 MEMB     78       DOPC     H12Y     HAL2     0.900000E-01   1.00800           0
     11246 MEMB     78       DOPC     C313     CTL2    -0.180000       12.0110           0
     11247 MEMB     78       DOPC     H13X     HAL2     0.900000E-01   1.00800           0
     11248 MEMB     78       DOPC     H13Y     HAL2     0.900000E-01   1.00800           0
     11249 MEMB     78       DOPC     C314     CTL2    -0.180000       12.0110           0
     11250 MEMB     78       DOPC     H14X     HAL2     0.900000E-01   1.00800           0
     11251 MEMB     78       DOPC     H14Y     HAL2     0.900000E-01   1.00800           0
     11252 MEMB     78       DOPC     C315     CTL2    -0.180000       12.0110           0
     11253 MEMB     78       DOPC     H15X     HAL2     0.900000E-01   1.00800           0
     11254 MEMB     78       DOPC     H15Y     HAL2     0.900000E-01   1.00800           0
     11255 MEMB     78       DOPC     C316     CTL2    -0.180000       12.0110           0
     11256 MEMB     78       DOPC     H16X     HAL2     0.900000E-01   1.00800           0
     11257 MEMB     78       DOPC     H16Y     HAL2     0.900000E-01   1.00800           0
     11258 MEMB     78       DOPC     C317     CTL2    -0.180000       12.0110           0
     11259 MEMB     78       DOPC     H17X     HAL2     0.900000E-01   1.00800           0
     11260 MEMB     78       DOPC     H17Y     HAL2     0.900000E-01   1.00800           0
     11261 MEMB     78       DOPC     C318     CTL3    -0.270000       12.0110           0
     11262 MEMB     78       DOPC     H18X     HAL3     0.900000E-01   1.00800           0
     11263 MEMB     78       DOPC     H18Y     HAL3     0.900000E-01   1.00800           0
     11264 MEMB     78       DOPC     H18Z     HAL3     0.900000E-01   1.00800           0
     11265 MEMB     79       DOPC     N        NTL     -0.600000       14.0070           0
     11266 MEMB     79       DOPC     C12      CTL2    -0.100000       12.0110           0
     11267 MEMB     79       DOPC     H12A     HL       0.250000       1.00800           0
     11268 MEMB     79       DOPC     H12B     HL       0.250000       1.00800           0
     11269 MEMB     79       DOPC     C13      CTL5    -0.350000       12.0110           0
     11270 MEMB     79       DOPC     H13A     HL       0.250000       1.00800           0
     11271 MEMB     79       DOPC     H13B     HL       0.250000       1.00800           0
     11272 MEMB     79       DOPC     H13C     HL       0.250000       1.00800           0
     11273 MEMB     79       DOPC     C14      CTL5    -0.350000       12.0110           0
     11274 MEMB     79       DOPC     H14A     HL       0.250000       1.00800           0
     11275 MEMB     79       DOPC     H14B     HL       0.250000       1.00800           0
     11276 MEMB     79       DOPC     H14C     HL       0.250000       1.00800           0
     11277 MEMB     79       DOPC     C15      CTL5    -0.350000       12.0110           0
     11278 MEMB     79       DOPC     H15A     HL       0.250000       1.00800           0
     11279 MEMB     79       DOPC     H15B     HL       0.250000       1.00800           0
     11280 MEMB     79       DOPC     H15C     HL       0.250000       1.00800           0
     11281 MEMB     79       DOPC     C11      CTL2    -0.800000E-01   12.0110           0
     11282 MEMB     79       DOPC     H11A     HAL2     0.900000E-01   1.00800           0
     11283 MEMB     79       DOPC     H11B     HAL2     0.900000E-01   1.00800           0
     11284 MEMB     79       DOPC     P        PL        1.50000       30.9740           0
     11285 MEMB     79       DOPC     O13      O2L     -0.780000       15.9994           0
     11286 MEMB     79       DOPC     O14      O2L     -0.780000       15.9994           0
     11287 MEMB     79       DOPC     O12      OSLP    -0.570000       15.9994           0
     11288 MEMB     79       DOPC     O11      OSLP    -0.570000       15.9994           0
     11289 MEMB     79       DOPC     C1       CTL2    -0.800000E-01   12.0110           0
     11290 MEMB     79       DOPC     HA       HAL2     0.900000E-01   1.00800           0
     11291 MEMB     79       DOPC     HB       HAL2     0.900000E-01   1.00800           0
     11292 MEMB     79       DOPC     C2       CTL1     0.170000       12.0110           0
     11293 MEMB     79       DOPC     HS       HAL1     0.900000E-01   1.00800           0
     11294 MEMB     79       DOPC     O21      OSL     -0.490000       15.9994           0
     11295 MEMB     79       DOPC     C21      CL       0.900000       12.0110           0
     11296 MEMB     79       DOPC     O22      OBL     -0.630000       15.9994           0
     11297 MEMB     79       DOPC     C22      CTL2    -0.220000       12.0110           0
     11298 MEMB     79       DOPC     H2R      HAL2     0.900000E-01   1.00800           0
     11299 MEMB     79       DOPC     H2S      HAL2     0.900000E-01   1.00800           0
     11300 MEMB     79       DOPC     C3       CTL2     0.800000E-01   12.0110           0
     11301 MEMB     79       DOPC     HX       HAL2     0.900000E-01   1.00800           0
     11302 MEMB     79       DOPC     HY       HAL2     0.900000E-01   1.00800           0
     11303 MEMB     79       DOPC     O31      OSL     -0.490000       15.9994           0
     11304 MEMB     79       DOPC     C31      CL       0.900000       12.0110           0
     11305 MEMB     79       DOPC     O32      OBL     -0.630000       15.9994           0
     11306 MEMB     79       DOPC     C32      CTL2    -0.220000       12.0110           0
     11307 MEMB     79       DOPC     H2X      HAL2     0.900000E-01   1.00800           0
     11308 MEMB     79       DOPC     H2Y      HAL2     0.900000E-01   1.00800           0
     11309 MEMB     79       DOPC     C23      CTL2    -0.180000       12.0110           0
     11310 MEMB     79       DOPC     H3R      HAL2     0.900000E-01   1.00800           0
     11311 MEMB     79       DOPC     H3S      HAL2     0.900000E-01   1.00800           0
     11312 MEMB     79       DOPC     C24      CTL2    -0.180000       12.0110           0
     11313 MEMB     79       DOPC     H4R      HAL2     0.900000E-01   1.00800           0
     11314 MEMB     79       DOPC     H4S      HAL2     0.900000E-01   1.00800           0
     11315 MEMB     79       DOPC     C25      CTL2    -0.180000       12.0110           0
     11316 MEMB     79       DOPC     H5R      HAL2     0.900000E-01   1.00800           0
     11317 MEMB     79       DOPC     H5S      HAL2     0.900000E-01   1.00800           0
     11318 MEMB     79       DOPC     C26      CTL2    -0.180000       12.0110           0
     11319 MEMB     79       DOPC     H6R      HAL2     0.900000E-01   1.00800           0
     11320 MEMB     79       DOPC     H6S      HAL2     0.900000E-01   1.00800           0
     11321 MEMB     79       DOPC     C27      CTL2    -0.180000       12.0110           0
     11322 MEMB     79       DOPC     H7R      HAL2     0.900000E-01   1.00800           0
     11323 MEMB     79       DOPC     H7S      HAL2     0.900000E-01   1.00800           0
     11324 MEMB     79       DOPC     C28      CTL2    -0.180000       12.0110           0
     11325 MEMB     79       DOPC     H8R      HAL2     0.900000E-01   1.00800           0
     11326 MEMB     79       DOPC     H8S      HAL2     0.900000E-01   1.00800           0
     11327 MEMB     79       DOPC     C29      CEL1    -0.150000       12.0110           0
     11328 MEMB     79       DOPC     H9R      HEL1     0.150000       1.00800           0
     11329 MEMB     79       DOPC     C210     CEL1    -0.150000       12.0110           0
     11330 MEMB     79       DOPC     H10R     HEL1     0.150000       1.00800           0
     11331 MEMB     79       DOPC     C211     CTL2    -0.180000       12.0110           0
     11332 MEMB     79       DOPC     H11R     HAL2     0.900000E-01   1.00800           0
     11333 MEMB     79       DOPC     H11S     HAL2     0.900000E-01   1.00800           0
     11334 MEMB     79       DOPC     C212     CTL2    -0.180000       12.0110           0
     11335 MEMB     79       DOPC     H12R     HAL2     0.900000E-01   1.00800           0
     11336 MEMB     79       DOPC     H12S     HAL2     0.900000E-01   1.00800           0
     11337 MEMB     79       DOPC     C213     CTL2    -0.180000       12.0110           0
     11338 MEMB     79       DOPC     H13R     HAL2     0.900000E-01   1.00800           0
     11339 MEMB     79       DOPC     H13S     HAL2     0.900000E-01   1.00800           0
     11340 MEMB     79       DOPC     C214     CTL2    -0.180000       12.0110           0
     11341 MEMB     79       DOPC     H14R     HAL2     0.900000E-01   1.00800           0
     11342 MEMB     79       DOPC     H14S     HAL2     0.900000E-01   1.00800           0
     11343 MEMB     79       DOPC     C215     CTL2    -0.180000       12.0110           0
     11344 MEMB     79       DOPC     H15R     HAL2     0.900000E-01   1.00800           0
     11345 MEMB     79       DOPC     H15S     HAL2     0.900000E-01   1.00800           0
     11346 MEMB     79       DOPC     C216     CTL2    -0.180000       12.0110           0
     11347 MEMB     79       DOPC     H16R     HAL2     0.900000E-01   1.00800           0
     11348 MEMB     79       DOPC     H16S     HAL2     0.900000E-01   1.00800           0
     11349 MEMB     79       DOPC     C217     CTL2    -0.180000       12.0110           0
     11350 MEMB     79       DOPC     H17R     HAL2     0.900000E-01   1.00800           0
     11351 MEMB     79       DOPC     H17S     HAL2     0.900000E-01   1.00800           0
     11352 MEMB     79       DOPC     C218     CTL3    -0.270000       12.0110           0
     11353 MEMB     79       DOPC     H18R     HAL3     0.900000E-01   1.00800           0
     11354 MEMB     79       DOPC     H18S     HAL3     0.900000E-01   1.00800           0
     11355 MEMB     79       DOPC     H18T     HAL3     0.900000E-01   1.00800           0
     11356 MEMB     79       DOPC     C33      CTL2    -0.180000       12.0110           0
     11357 MEMB     79       DOPC     H3X      HAL2     0.900000E-01   1.00800           0
     11358 MEMB     79       DOPC     H3Y      HAL2     0.900000E-01   1.00800           0
     11359 MEMB     79       DOPC     C34      CTL2    -0.180000       12.0110           0
     11360 MEMB     79       DOPC     H4X      HAL2     0.900000E-01   1.00800           0
     11361 MEMB     79       DOPC     H4Y      HAL2     0.900000E-01   1.00800           0
     11362 MEMB     79       DOPC     C35      CTL2    -0.180000       12.0110           0
     11363 MEMB     79       DOPC     H5X      HAL2     0.900000E-01   1.00800           0
     11364 MEMB     79       DOPC     H5Y      HAL2     0.900000E-01   1.00800           0
     11365 MEMB     79       DOPC     C36      CTL2    -0.180000       12.0110           0
     11366 MEMB     79       DOPC     H6X      HAL2     0.900000E-01   1.00800           0
     11367 MEMB     79       DOPC     H6Y      HAL2     0.900000E-01   1.00800           0
     11368 MEMB     79       DOPC     C37      CTL2    -0.180000       12.0110           0
     11369 MEMB     79       DOPC     H7X      HAL2     0.900000E-01   1.00800           0
     11370 MEMB     79       DOPC     H7Y      HAL2     0.900000E-01   1.00800           0
     11371 MEMB     79       DOPC     C38      CTL2    -0.180000       12.0110           0
     11372 MEMB     79       DOPC     H8X      HAL2     0.900000E-01   1.00800           0
     11373 MEMB     79       DOPC     H8Y      HAL2     0.900000E-01   1.00800           0
     11374 MEMB     79       DOPC     C39      CEL1    -0.150000       12.0110           0
     11375 MEMB     79       DOPC     H9X      HEL1     0.150000       1.00800           0
     11376 MEMB     79       DOPC     C310     CEL1    -0.150000       12.0110           0
     11377 MEMB     79       DOPC     H10X     HEL1     0.150000       1.00800           0
     11378 MEMB     79       DOPC     C311     CTL2    -0.180000       12.0110           0
     11379 MEMB     79       DOPC     H11X     HAL2     0.900000E-01   1.00800           0
     11380 MEMB     79       DOPC     H11Y     HAL2     0.900000E-01   1.00800           0
     11381 MEMB     79       DOPC     C312     CTL2    -0.180000       12.0110           0
     11382 MEMB     79       DOPC     H12X     HAL2     0.900000E-01   1.00800           0
     11383 MEMB     79       DOPC     H12Y     HAL2     0.900000E-01   1.00800           0
     11384 MEMB     79       DOPC     C313     CTL2    -0.180000       12.0110           0
     11385 MEMB     79       DOPC     H13X     HAL2     0.900000E-01   1.00800           0
     11386 MEMB     79       DOPC     H13Y     HAL2     0.900000E-01   1.00800           0
     11387 MEMB     79       DOPC     C314     CTL2    -0.180000       12.0110           0
     11388 MEMB     79       DOPC     H14X     HAL2     0.900000E-01   1.00800           0
     11389 MEMB     79       DOPC     H14Y     HAL2     0.900000E-01   1.00800           0
     11390 MEMB     79       DOPC     C315     CTL2    -0.180000       12.0110           0
     11391 MEMB     79       DOPC     H15X     HAL2     0.900000E-01   1.00800           0
     11392 MEMB     79       DOPC     H15Y     HAL2     0.900000E-01   1.00800           0
     11393 MEMB     79       DOPC     C316     CTL2    -0.180000       12.0110           0
     11394 MEMB     79       DOPC     H16X     HAL2     0.900000E-01   1.00800           0
     11395 MEMB     79       DOPC     H16Y     HAL2     0.900000E-01   1.00800           0
     11396 MEMB     79       DOPC     C317     CTL2    -0.180000       12.0110           0
     11397 MEMB     79       DOPC     H17X     HAL2     0.900000E-01   1.00800           0
     11398 MEMB     79       DOPC     H17Y     HAL2     0.900000E-01   1.00800           0
     11399 MEMB     79       DOPC     C318     CTL3    -0.270000       12.0110           0
     11400 MEMB     79       DOPC     H18X     HAL3     0.900000E-01   1.00800           0
     11401 MEMB     79       DOPC     H18Y     HAL3     0.900000E-01   1.00800           0
     11402 MEMB     79       DOPC     H18Z     HAL3     0.900000E-01   1.00800           0
     11403 MEMB     80       DOPC     N        NTL     -0.600000       14.0070           0
     11404 MEMB     80       DOPC     C12      CTL2    -0.100000       12.0110           0
     11405 MEMB     80       DOPC     H12A     HL       0.250000       1.00800           0
     11406 MEMB     80       DOPC     H12B     HL       0.250000       1.00800           0
     11407 MEMB     80       DOPC     C13      CTL5    -0.350000       12.0110           0
     11408 MEMB     80       DOPC     H13A     HL       0.250000       1.00800           0
     11409 MEMB     80       DOPC     H13B     HL       0.250000       1.00800           0
     11410 MEMB     80       DOPC     H13C     HL       0.250000       1.00800           0
     11411 MEMB     80       DOPC     C14      CTL5    -0.350000       12.0110           0
     11412 MEMB     80       DOPC     H14A     HL       0.250000       1.00800           0
     11413 MEMB     80       DOPC     H14B     HL       0.250000       1.00800           0
     11414 MEMB     80       DOPC     H14C     HL       0.250000       1.00800           0
     11415 MEMB     80       DOPC     C15      CTL5    -0.350000       12.0110           0
     11416 MEMB     80       DOPC     H15A     HL       0.250000       1.00800           0
     11417 MEMB     80       DOPC     H15B     HL       0.250000       1.00800           0
     11418 MEMB     80       DOPC     H15C     HL       0.250000       1.00800           0
     11419 MEMB     80       DOPC     C11      CTL2    -0.800000E-01   12.0110           0
     11420 MEMB     80       DOPC     H11A     HAL2     0.900000E-01   1.00800           0
     11421 MEMB     80       DOPC     H11B     HAL2     0.900000E-01   1.00800           0
     11422 MEMB     80       DOPC     P        PL        1.50000       30.9740           0
     11423 MEMB     80       DOPC     O13      O2L     -0.780000       15.9994           0
     11424 MEMB     80       DOPC     O14      O2L     -0.780000       15.9994           0
     11425 MEMB     80       DOPC     O12      OSLP    -0.570000       15.9994           0
     11426 MEMB     80       DOPC     O11      OSLP    -0.570000       15.9994           0
     11427 MEMB     80       DOPC     C1       CTL2    -0.800000E-01   12.0110           0
     11428 MEMB     80       DOPC     HA       HAL2     0.900000E-01   1.00800           0
     11429 MEMB     80       DOPC     HB       HAL2     0.900000E-01   1.00800           0
     11430 MEMB     80       DOPC     C2       CTL1     0.170000       12.0110           0
     11431 MEMB     80       DOPC     HS       HAL1     0.900000E-01   1.00800           0
     11432 MEMB     80       DOPC     O21      OSL     -0.490000       15.9994           0
     11433 MEMB     80       DOPC     C21      CL       0.900000       12.0110           0
     11434 MEMB     80       DOPC     O22      OBL     -0.630000       15.9994           0
     11435 MEMB     80       DOPC     C22      CTL2    -0.220000       12.0110           0
     11436 MEMB     80       DOPC     H2R      HAL2     0.900000E-01   1.00800           0
     11437 MEMB     80       DOPC     H2S      HAL2     0.900000E-01   1.00800           0
     11438 MEMB     80       DOPC     C3       CTL2     0.800000E-01   12.0110           0
     11439 MEMB     80       DOPC     HX       HAL2     0.900000E-01   1.00800           0
     11440 MEMB     80       DOPC     HY       HAL2     0.900000E-01   1.00800           0
     11441 MEMB     80       DOPC     O31      OSL     -0.490000       15.9994           0
     11442 MEMB     80       DOPC     C31      CL       0.900000       12.0110           0
     11443 MEMB     80       DOPC     O32      OBL     -0.630000       15.9994           0
     11444 MEMB     80       DOPC     C32      CTL2    -0.220000       12.0110           0
     11445 MEMB     80       DOPC     H2X      HAL2     0.900000E-01   1.00800           0
     11446 MEMB     80       DOPC     H2Y      HAL2     0.900000E-01   1.00800           0
     11447 MEMB     80       DOPC     C23      CTL2    -0.180000       12.0110           0
     11448 MEMB     80       DOPC     H3R      HAL2     0.900000E-01   1.00800           0
     11449 MEMB     80       DOPC     H3S      HAL2     0.900000E-01   1.00800           0
     11450 MEMB     80       DOPC     C24      CTL2    -0.180000       12.0110           0
     11451 MEMB     80       DOPC     H4R      HAL2     0.900000E-01   1.00800           0
     11452 MEMB     80       DOPC     H4S      HAL2     0.900000E-01   1.00800           0
     11453 MEMB     80       DOPC     C25      CTL2    -0.180000       12.0110           0
     11454 MEMB     80       DOPC     H5R      HAL2     0.900000E-01   1.00800           0
     11455 MEMB     80       DOPC     H5S      HAL2     0.900000E-01   1.00800           0
     11456 MEMB     80       DOPC     C26      CTL2    -0.180000       12.0110           0
     11457 MEMB     80       DOPC     H6R      HAL2     0.900000E-01   1.00800           0
     11458 MEMB     80       DOPC     H6S      HAL2     0.900000E-01   1.00800           0
     11459 MEMB     80       DOPC     C27      CTL2    -0.180000       12.0110           0
     11460 MEMB     80       DOPC     H7R      HAL2     0.900000E-01   1.00800           0
     11461 MEMB     80       DOPC     H7S      HAL2     0.900000E-01   1.00800           0
     11462 MEMB     80       DOPC     C28      CTL2    -0.180000       12.0110           0
     11463 MEMB     80       DOPC     H8R      HAL2     0.900000E-01   1.00800           0
     11464 MEMB     80       DOPC     H8S      HAL2     0.900000E-01   1.00800           0
     11465 MEMB     80       DOPC     C29      CEL1    -0.150000       12.0110           0
     11466 MEMB     80       DOPC     H9R      HEL1     0.150000       1.00800           0
     11467 MEMB     80       DOPC     C210     CEL1    -0.150000       12.0110           0
     11468 MEMB     80       DOPC     H10R     HEL1     0.150000       1.00800           0
     11469 MEMB     80       DOPC     C211     CTL2    -0.180000       12.0110           0
     11470 MEMB     80       DOPC     H11R     HAL2     0.900000E-01   1.00800           0
     11471 MEMB     80       DOPC     H11S     HAL2     0.900000E-01   1.00800           0
     11472 MEMB     80       DOPC     C212     CTL2    -0.180000       12.0110           0
     11473 MEMB     80       DOPC     H12R     HAL2     0.900000E-01   1.00800           0
     11474 MEMB     80       DOPC     H12S     HAL2     0.900000E-01   1.00800           0
     11475 MEMB     80       DOPC     C213     CTL2    -0.180000       12.0110           0
     11476 MEMB     80       DOPC     H13R     HAL2     0.900000E-01   1.00800           0
     11477 MEMB     80       DOPC     H13S     HAL2     0.900000E-01   1.00800           0
     11478 MEMB     80       DOPC     C214     CTL2    -0.180000       12.0110           0
     11479 MEMB     80       DOPC     H14R     HAL2     0.900000E-01   1.00800           0
     11480 MEMB     80       DOPC     H14S     HAL2     0.900000E-01   1.00800           0
     11481 MEMB     80       DOPC     C215     CTL2    -0.180000       12.0110           0
     11482 MEMB     80       DOPC     H15R     HAL2     0.900000E-01   1.00800           0
     11483 MEMB     80       DOPC     H15S     HAL2     0.900000E-01   1.00800           0
     11484 MEMB     80       DOPC     C216     CTL2    -0.180000       12.0110           0
     11485 MEMB     80       DOPC     H16R     HAL2     0.900000E-01   1.00800           0
     11486 MEMB     80       DOPC     H16S     HAL2     0.900000E-01   1.00800           0
     11487 MEMB     80       DOPC     C217     CTL2    -0.180000       12.0110           0
     11488 MEMB     80       DOPC     H17R     HAL2     0.900000E-01   1.00800           0
     11489 MEMB     80       DOPC     H17S     HAL2     0.900000E-01   1.00800           0
     11490 MEMB     80       DOPC     C218     CTL3    -0.270000       12.0110           0
     11491 MEMB     80       DOPC     H18R     HAL3     0.900000E-01   1.00800           0
     11492 MEMB     80       DOPC     H18S     HAL3     0.900000E-01   1.00800           0
     11493 MEMB     80       DOPC     H18T     HAL3     0.900000E-01   1.00800           0
     11494 MEMB     80       DOPC     C33      CTL2    -0.180000       12.0110           0
     11495 MEMB     80       DOPC     H3X      HAL2     0.900000E-01   1.00800           0
     11496 MEMB     80       DOPC     H3Y      HAL2     0.900000E-01   1.00800           0
     11497 MEMB     80       DOPC     C34      CTL2    -0.180000       12.0110           0
     11498 MEMB     80       DOPC     H4X      HAL2     0.900000E-01   1.00800           0
     11499 MEMB     80       DOPC     H4Y      HAL2     0.900000E-01   1.00800           0
     11500 MEMB     80       DOPC     C35      CTL2    -0.180000       12.0110           0
     11501 MEMB     80       DOPC     H5X      HAL2     0.900000E-01   1.00800           0
     11502 MEMB     80       DOPC     H5Y      HAL2     0.900000E-01   1.00800           0
     11503 MEMB     80       DOPC     C36      CTL2    -0.180000       12.0110           0
     11504 MEMB     80       DOPC     H6X      HAL2     0.900000E-01   1.00800           0
     11505 MEMB     80       DOPC     H6Y      HAL2     0.900000E-01   1.00800           0
     11506 MEMB     80       DOPC     C37      CTL2    -0.180000       12.0110           0
     11507 MEMB     80       DOPC     H7X      HAL2     0.900000E-01   1.00800           0
     11508 MEMB     80       DOPC     H7Y      HAL2     0.900000E-01   1.00800           0
     11509 MEMB     80       DOPC     C38      CTL2    -0.180000       12.0110           0
     11510 MEMB     80       DOPC     H8X      HAL2     0.900000E-01   1.00800           0
     11511 MEMB     80       DOPC     H8Y      HAL2     0.900000E-01   1.00800           0
     11512 MEMB     80       DOPC     C39      CEL1    -0.150000       12.0110           0
     11513 MEMB     80       DOPC     H9X      HEL1     0.150000       1.00800           0
     11514 MEMB     80       DOPC     C310     CEL1    -0.150000       12.0110           0
     11515 MEMB     80       DOPC     H10X     HEL1     0.150000       1.00800           0
     11516 MEMB     80       DOPC     C311     CTL2    -0.180000       12.0110           0
     11517 MEMB     80       DOPC     H11X     HAL2     0.900000E-01   1.00800           0
     11518 MEMB     80       DOPC     H11Y     HAL2     0.900000E-01   1.00800           0
     11519 MEMB     80       DOPC     C312     CTL2    -0.180000       12.0110           0
     11520 MEMB     80       DOPC     H12X     HAL2     0.900000E-01   1.00800           0
     11521 MEMB     80       DOPC     H12Y     HAL2     0.900000E-01   1.00800           0
     11522 MEMB     80       DOPC     C313     CTL2    -0.180000       12.0110           0
     11523 MEMB     80       DOPC     H13X     HAL2     0.900000E-01   1.00800           0
     11524 MEMB     80       DOPC     H13Y     HAL2     0.900000E-01   1.00800           0
     11525 MEMB     80       DOPC     C314     CTL2    -0.180000       12.0110           0
     11526 MEMB     80       DOPC     H14X     HAL2     0.900000E-01   1.00800           0
     11527 MEMB     80       DOPC     H14Y     HAL2     0.900000E-01   1.00800           0
     11528 MEMB     80       DOPC     C315     CTL2    -0.180000       12.0110           0
     11529 MEMB     80       DOPC     H15X     HAL2     0.900000E-01   1.00800           0
     11530 MEMB     80       DOPC     H15Y     HAL2     0.900000E-01   1.00800           0
     11531 MEMB     80       DOPC     C316     CTL2    -0.180000       12.0110           0
     11532 MEMB     80       DOPC     H16X     HAL2     0.900000E-01   1.00800           0
     11533 MEMB     80       DOPC     H16Y     HAL2     0.900000E-01   1.00800           0
     11534 MEMB     80       DOPC     C317     CTL2    -0.180000       12.0110           0
     11535 MEMB     80       DOPC     H17X     HAL2     0.900000E-01   1.00800           0
     11536 MEMB     80       DOPC     H17Y     HAL2     0.900000E-01   1.00800           0
     11537 MEMB     80       DOPC     C318     CTL3    -0.270000       12.0110           0
     11538 MEMB     80       DOPC     H18X     HAL3     0.900000E-01   1.00800           0
     11539 MEMB     80       DOPC     H18Y     HAL3     0.900000E-01   1.00800           0
     11540 MEMB     80       DOPC     H18Z     HAL3     0.900000E-01   1.00800           0
     11541 MEMB     81       DOPC     N        NTL     -0.600000       14.0070           0
     11542 MEMB     81       DOPC     C12      CTL2    -0.100000       12.0110           0
     11543 MEMB     81       DOPC     H12A     HL       0.250000       1.00800           0
     11544 MEMB     81       DOPC     H12B     HL       0.250000       1.00800           0
     11545 MEMB     81       DOPC     C13      CTL5    -0.350000       12.0110           0
     11546 MEMB     81       DOPC     H13A     HL       0.250000       1.00800           0
     11547 MEMB     81       DOPC     H13B     HL       0.250000       1.00800           0
     11548 MEMB     81       DOPC     H13C     HL       0.250000       1.00800           0
     11549 MEMB     81       DOPC     C14      CTL5    -0.350000       12.0110           0
     11550 MEMB     81       DOPC     H14A     HL       0.250000       1.00800           0
     11551 MEMB     81       DOPC     H14B     HL       0.250000       1.00800           0
     11552 MEMB     81       DOPC     H14C     HL       0.250000       1.00800           0
     11553 MEMB     81       DOPC     C15      CTL5    -0.350000       12.0110           0
     11554 MEMB     81       DOPC     H15A     HL       0.250000       1.00800           0
     11555 MEMB     81       DOPC     H15B     HL       0.250000       1.00800           0
     11556 MEMB     81       DOPC     H15C     HL       0.250000       1.00800           0
     11557 MEMB     81       DOPC     C11      CTL2    -0.800000E-01   12.0110           0
     11558 MEMB     81       DOPC     H11A     HAL2     0.900000E-01   1.00800           0
     11559 MEMB     81       DOPC     H11B     HAL2     0.900000E-01   1.00800           0
     11560 MEMB     81       DOPC     P        PL        1.50000       30.9740           0
     11561 MEMB     81       DOPC     O13      O2L     -0.780000       15.9994           0
     11562 MEMB     81       DOPC     O14      O2L     -0.780000       15.9994           0
     11563 MEMB     81       DOPC     O12      OSLP    -0.570000       15.9994           0
     11564 MEMB     81       DOPC     O11      OSLP    -0.570000       15.9994           0
     11565 MEMB     81       DOPC     C1       CTL2    -0.800000E-01   12.0110           0
     11566 MEMB     81       DOPC     HA       HAL2     0.900000E-01   1.00800           0
     11567 MEMB     81       DOPC     HB       HAL2     0.900000E-01   1.00800           0
     11568 MEMB     81       DOPC     C2       CTL1     0.170000       12.0110           0
     11569 MEMB     81       DOPC     HS       HAL1     0.900000E-01   1.00800           0
     11570 MEMB     81       DOPC     O21      OSL     -0.490000       15.9994           0
     11571 MEMB     81       DOPC     C21      CL       0.900000       12.0110           0
     11572 MEMB     81       DOPC     O22      OBL     -0.630000       15.9994           0
     11573 MEMB     81       DOPC     C22      CTL2    -0.220000       12.0110           0
     11574 MEMB     81       DOPC     H2R      HAL2     0.900000E-01   1.00800           0
     11575 MEMB     81       DOPC     H2S      HAL2     0.900000E-01   1.00800           0
     11576 MEMB     81       DOPC     C3       CTL2     0.800000E-01   12.0110           0
     11577 MEMB     81       DOPC     HX       HAL2     0.900000E-01   1.00800           0
     11578 MEMB     81       DOPC     HY       HAL2     0.900000E-01   1.00800           0
     11579 MEMB     81       DOPC     O31      OSL     -0.490000       15.9994           0
     11580 MEMB     81       DOPC     C31      CL       0.900000       12.0110           0
     11581 MEMB     81       DOPC     O32      OBL     -0.630000       15.9994           0
     11582 MEMB     81       DOPC     C32      CTL2    -0.220000       12.0110           0
     11583 MEMB     81       DOPC     H2X      HAL2     0.900000E-01   1.00800           0
     11584 MEMB     81       DOPC     H2Y      HAL2     0.900000E-01   1.00800           0
     11585 MEMB     81       DOPC     C23      CTL2    -0.180000       12.0110           0
     11586 MEMB     81       DOPC     H3R      HAL2     0.900000E-01   1.00800           0
     11587 MEMB     81       DOPC     H3S      HAL2     0.900000E-01   1.00800           0
     11588 MEMB     81       DOPC     C24      CTL2    -0.180000       12.0110           0
     11589 MEMB     81       DOPC     H4R      HAL2     0.900000E-01   1.00800           0
     11590 MEMB     81       DOPC     H4S      HAL2     0.900000E-01   1.00800           0
     11591 MEMB     81       DOPC     C25      CTL2    -0.180000       12.0110           0
     11592 MEMB     81       DOPC     H5R      HAL2     0.900000E-01   1.00800           0
     11593 MEMB     81       DOPC     H5S      HAL2     0.900000E-01   1.00800           0
     11594 MEMB     81       DOPC     C26      CTL2    -0.180000       12.0110           0
     11595 MEMB     81       DOPC     H6R      HAL2     0.900000E-01   1.00800           0
     11596 MEMB     81       DOPC     H6S      HAL2     0.900000E-01   1.00800           0
     11597 MEMB     81       DOPC     C27      CTL2    -0.180000       12.0110           0
     11598 MEMB     81       DOPC     H7R      HAL2     0.900000E-01   1.00800           0
     11599 MEMB     81       DOPC     H7S      HAL2     0.900000E-01   1.00800           0
     11600 MEMB     81       DOPC     C28      CTL2    -0.180000       12.0110           0
     11601 MEMB     81       DOPC     H8R      HAL2     0.900000E-01   1.00800           0
     11602 MEMB     81       DOPC     H8S      HAL2     0.900000E-01   1.00800           0
     11603 MEMB     81       DOPC     C29      CEL1    -0.150000       12.0110           0
     11604 MEMB     81       DOPC     H9R      HEL1     0.150000       1.00800           0
     11605 MEMB     81       DOPC     C210     CEL1    -0.150000       12.0110           0
     11606 MEMB     81       DOPC     H10R     HEL1     0.150000       1.00800           0
     11607 MEMB     81       DOPC     C211     CTL2    -0.180000       12.0110           0
     11608 MEMB     81       DOPC     H11R     HAL2     0.900000E-01   1.00800           0
     11609 MEMB     81       DOPC     H11S     HAL2     0.900000E-01   1.00800           0
     11610 MEMB     81       DOPC     C212     CTL2    -0.180000       12.0110           0
     11611 MEMB     81       DOPC     H12R     HAL2     0.900000E-01   1.00800           0
     11612 MEMB     81       DOPC     H12S     HAL2     0.900000E-01   1.00800           0
     11613 MEMB     81       DOPC     C213     CTL2    -0.180000       12.0110           0
     11614 MEMB     81       DOPC     H13R     HAL2     0.900000E-01   1.00800           0
     11615 MEMB     81       DOPC     H13S     HAL2     0.900000E-01   1.00800           0
     11616 MEMB     81       DOPC     C214     CTL2    -0.180000       12.0110           0
     11617 MEMB     81       DOPC     H14R     HAL2     0.900000E-01   1.00800           0
     11618 MEMB     81       DOPC     H14S     HAL2     0.900000E-01   1.00800           0
     11619 MEMB     81       DOPC     C215     CTL2    -0.180000       12.0110           0
     11620 MEMB     81       DOPC     H15R     HAL2     0.900000E-01   1.00800           0
     11621 MEMB     81       DOPC     H15S     HAL2     0.900000E-01   1.00800           0
     11622 MEMB     81       DOPC     C216     CTL2    -0.180000       12.0110           0
     11623 MEMB     81       DOPC     H16R     HAL2     0.900000E-01   1.00800           0
     11624 MEMB     81       DOPC     H16S     HAL2     0.900000E-01   1.00800           0
     11625 MEMB     81       DOPC     C217     CTL2    -0.180000       12.0110           0
     11626 MEMB     81       DOPC     H17R     HAL2     0.900000E-01   1.00800           0
     11627 MEMB     81       DOPC     H17S     HAL2     0.900000E-01   1.00800           0
     11628 MEMB     81       DOPC     C218     CTL3    -0.270000       12.0110           0
     11629 MEMB     81       DOPC     H18R     HAL3     0.900000E-01   1.00800           0
     11630 MEMB     81       DOPC     H18S     HAL3     0.900000E-01   1.00800           0
     11631 MEMB     81       DOPC     H18T     HAL3     0.900000E-01   1.00800           0
     11632 MEMB     81       DOPC     C33      CTL2    -0.180000       12.0110           0
     11633 MEMB     81       DOPC     H3X      HAL2     0.900000E-01   1.00800           0
     11634 MEMB     81       DOPC     H3Y      HAL2     0.900000E-01   1.00800           0
     11635 MEMB     81       DOPC     C34      CTL2    -0.180000       12.0110           0
     11636 MEMB     81       DOPC     H4X      HAL2     0.900000E-01   1.00800           0
     11637 MEMB     81       DOPC     H4Y      HAL2     0.900000E-01   1.00800           0
     11638 MEMB     81       DOPC     C35      CTL2    -0.180000       12.0110           0
     11639 MEMB     81       DOPC     H5X      HAL2     0.900000E-01   1.00800           0
     11640 MEMB     81       DOPC     H5Y      HAL2     0.900000E-01   1.00800           0
     11641 MEMB     81       DOPC     C36      CTL2    -0.180000       12.0110           0
     11642 MEMB     81       DOPC     H6X      HAL2     0.900000E-01   1.00800           0
     11643 MEMB     81       DOPC     H6Y      HAL2     0.900000E-01   1.00800           0
     11644 MEMB     81       DOPC     C37      CTL2    -0.180000       12.0110           0
     11645 MEMB     81       DOPC     H7X      HAL2     0.900000E-01   1.00800           0
     11646 MEMB     81       DOPC     H7Y      HAL2     0.900000E-01   1.00800           0
     11647 MEMB     81       DOPC     C38      CTL2    -0.180000       12.0110           0
     11648 MEMB     81       DOPC     H8X      HAL2     0.900000E-01   1.00800           0
     11649 MEMB     81       DOPC     H8Y      HAL2     0.900000E-01   1.00800           0
     11650 MEMB     81       DOPC     C39      CEL1    -0.150000       12.0110           0
     11651 MEMB     81       DOPC     H9X      HEL1     0.150000       1.00800           0
     11652 MEMB     81       DOPC     C310     CEL1    -0.150000       12.0110           0
     11653 MEMB     81       DOPC     H10X     HEL1     0.150000       1.00800           0
     11654 MEMB     81       DOPC     C311     CTL2    -0.180000       12.0110           0
     11655 MEMB     81       DOPC     H11X     HAL2     0.900000E-01   1.00800           0
     11656 MEMB     81       DOPC     H11Y     HAL2     0.900000E-01   1.00800           0
     11657 MEMB     81       DOPC     C312     CTL2    -0.180000       12.0110           0
     11658 MEMB     81       DOPC     H12X     HAL2     0.900000E-01   1.00800           0
     11659 MEMB     81       DOPC     H12Y     HAL2     0.900000E-01   1.00800           0
     11660 MEMB     81       DOPC     C313     CTL2    -0.180000       12.0110           0
     11661 MEMB     81       DOPC     H13X     HAL2     0.900000E-01   1.00800           0
     11662 MEMB     81       DOPC     H13Y     HAL2     0.900000E-01   1.00800           0
     11663 MEMB     81       DOPC     C314     CTL2    -0.180000       12.0110           0
     11664 MEMB     81       DOPC     H14X     HAL2     0.900000E-01   1.00800           0
     11665 MEMB     81       DOPC     H14Y     HAL2     0.900000E-01   1.00800           0
     11666 MEMB     81       DOPC     C315     CTL2    -0.180000       12.0110           0
     11667 MEMB     81       DOPC     H15X     HAL2     0.900000E-01   1.00800           0
     11668 MEMB     81       DOPC     H15Y     HAL2     0.900000E-01   1.00800           0
     11669 MEMB     81       DOPC     C316     CTL2    -0.180000       12.0110           0
     11670 MEMB     81       DOPC     H16X     HAL2     0.900000E-01   1.00800           0
     11671 MEMB     81       DOPC     H16Y     HAL2     0.900000E-01   1.00800           0
     11672 MEMB     81       DOPC     C317     CTL2    -0.180000       12.0110           0
     11673 MEMB     81       DOPC     H17X     HAL2     0.900000E-01   1.00800           0
     11674 MEMB     81       DOPC     H17Y     HAL2     0.900000E-01   1.00800           0
     11675 MEMB     81       DOPC     C318     CTL3    -0.270000       12.0110           0
     11676 MEMB     81       DOPC     H18X     HAL3     0.900000E-01   1.00800           0
     11677 MEMB     81       DOPC     H18Y     HAL3     0.900000E-01   1.00800           0
     11678 MEMB     81       DOPC     H18Z     HAL3     0.900000E-01   1.00800           0
     11679 MEMB     82       DOPC     N        NTL     -0.600000       14.0070           0
     11680 MEMB     82       DOPC     C12      CTL2    -0.100000       12.0110           0
     11681 MEMB     82       DOPC     H12A     HL       0.250000       1.00800           0
     11682 MEMB     82       DOPC     H12B     HL       0.250000       1.00800           0
     11683 MEMB     82       DOPC     C13      CTL5    -0.350000       12.0110           0
     11684 MEMB     82       DOPC     H13A     HL       0.250000       1.00800           0
     11685 MEMB     82       DOPC     H13B     HL       0.250000       1.00800           0
     11686 MEMB     82       DOPC     H13C     HL       0.250000       1.00800           0
     11687 MEMB     82       DOPC     C14      CTL5    -0.350000       12.0110           0
     11688 MEMB     82       DOPC     H14A     HL       0.250000       1.00800           0
     11689 MEMB     82       DOPC     H14B     HL       0.250000       1.00800           0
     11690 MEMB     82       DOPC     H14C     HL       0.250000       1.00800           0
     11691 MEMB     82       DOPC     C15      CTL5    -0.350000       12.0110           0
     11692 MEMB     82       DOPC     H15A     HL       0.250000       1.00800           0
     11693 MEMB     82       DOPC     H15B     HL       0.250000       1.00800           0
     11694 MEMB     82       DOPC     H15C     HL       0.250000       1.00800           0
     11695 MEMB     82       DOPC     C11      CTL2    -0.800000E-01   12.0110           0
     11696 MEMB     82       DOPC     H11A     HAL2     0.900000E-01   1.00800           0
     11697 MEMB     82       DOPC     H11B     HAL2     0.900000E-01   1.00800           0
     11698 MEMB     82       DOPC     P        PL        1.50000       30.9740           0
     11699 MEMB     82       DOPC     O13      O2L     -0.780000       15.9994           0
     11700 MEMB     82       DOPC     O14      O2L     -0.780000       15.9994           0
     11701 MEMB     82       DOPC     O12      OSLP    -0.570000       15.9994           0
     11702 MEMB     82       DOPC     O11      OSLP    -0.570000       15.9994           0
     11703 MEMB     82       DOPC     C1       CTL2    -0.800000E-01   12.0110           0
     11704 MEMB     82       DOPC     HA       HAL2     0.900000E-01   1.00800           0
     11705 MEMB     82       DOPC     HB       HAL2     0.900000E-01   1.00800           0
     11706 MEMB     82       DOPC     C2       CTL1     0.170000       12.0110           0
     11707 MEMB     82       DOPC     HS       HAL1     0.900000E-01   1.00800           0
     11708 MEMB     82       DOPC     O21      OSL     -0.490000       15.9994           0
     11709 MEMB     82       DOPC     C21      CL       0.900000       12.0110           0
     11710 MEMB     82       DOPC     O22      OBL     -0.630000       15.9994           0
     11711 MEMB     82       DOPC     C22      CTL2    -0.220000       12.0110           0
     11712 MEMB     82       DOPC     H2R      HAL2     0.900000E-01   1.00800           0
     11713 MEMB     82       DOPC     H2S      HAL2     0.900000E-01   1.00800           0
     11714 MEMB     82       DOPC     C3       CTL2     0.800000E-01   12.0110           0
     11715 MEMB     82       DOPC     HX       HAL2     0.900000E-01   1.00800           0
     11716 MEMB     82       DOPC     HY       HAL2     0.900000E-01   1.00800           0
     11717 MEMB     82       DOPC     O31      OSL     -0.490000       15.9994           0
     11718 MEMB     82       DOPC     C31      CL       0.900000       12.0110           0
     11719 MEMB     82       DOPC     O32      OBL     -0.630000       15.9994           0
     11720 MEMB     82       DOPC     C32      CTL2    -0.220000       12.0110           0
     11721 MEMB     82       DOPC     H2X      HAL2     0.900000E-01   1.00800           0
     11722 MEMB     82       DOPC     H2Y      HAL2     0.900000E-01   1.00800           0
     11723 MEMB     82       DOPC     C23      CTL2    -0.180000       12.0110           0
     11724 MEMB     82       DOPC     H3R      HAL2     0.900000E-01   1.00800           0
     11725 MEMB     82       DOPC     H3S      HAL2     0.900000E-01   1.00800           0
     11726 MEMB     82       DOPC     C24      CTL2    -0.180000       12.0110           0
     11727 MEMB     82       DOPC     H4R      HAL2     0.900000E-01   1.00800           0
     11728 MEMB     82       DOPC     H4S      HAL2     0.900000E-01   1.00800           0
     11729 MEMB     82       DOPC     C25      CTL2    -0.180000       12.0110           0
     11730 MEMB     82       DOPC     H5R      HAL2     0.900000E-01   1.00800           0
     11731 MEMB     82       DOPC     H5S      HAL2     0.900000E-01   1.00800           0
     11732 MEMB     82       DOPC     C26      CTL2    -0.180000       12.0110           0
     11733 MEMB     82       DOPC     H6R      HAL2     0.900000E-01   1.00800           0
     11734 MEMB     82       DOPC     H6S      HAL2     0.900000E-01   1.00800           0
     11735 MEMB     82       DOPC     C27      CTL2    -0.180000       12.0110           0
     11736 MEMB     82       DOPC     H7R      HAL2     0.900000E-01   1.00800           0
     11737 MEMB     82       DOPC     H7S      HAL2     0.900000E-01   1.00800           0
     11738 MEMB     82       DOPC     C28      CTL2    -0.180000       12.0110           0
     11739 MEMB     82       DOPC     H8R      HAL2     0.900000E-01   1.00800           0
     11740 MEMB     82       DOPC     H8S      HAL2     0.900000E-01   1.00800           0
     11741 MEMB     82       DOPC     C29      CEL1    -0.150000       12.0110           0
     11742 MEMB     82       DOPC     H9R      HEL1     0.150000       1.00800           0
     11743 MEMB     82       DOPC     C210     CEL1    -0.150000       12.0110           0
     11744 MEMB     82       DOPC     H10R     HEL1     0.150000       1.00800           0
     11745 MEMB     82       DOPC     C211     CTL2    -0.180000       12.0110           0
     11746 MEMB     82       DOPC     H11R     HAL2     0.900000E-01   1.00800           0
     11747 MEMB     82       DOPC     H11S     HAL2     0.900000E-01   1.00800           0
     11748 MEMB     82       DOPC     C212     CTL2    -0.180000       12.0110           0
     11749 MEMB     82       DOPC     H12R     HAL2     0.900000E-01   1.00800           0
     11750 MEMB     82       DOPC     H12S     HAL2     0.900000E-01   1.00800           0
     11751 MEMB     82       DOPC     C213     CTL2    -0.180000       12.0110           0
     11752 MEMB     82       DOPC     H13R     HAL2     0.900000E-01   1.00800           0
     11753 MEMB     82       DOPC     H13S     HAL2     0.900000E-01   1.00800           0
     11754 MEMB     82       DOPC     C214     CTL2    -0.180000       12.0110           0
     11755 MEMB     82       DOPC     H14R     HAL2     0.900000E-01   1.00800           0
     11756 MEMB     82       DOPC     H14S     HAL2     0.900000E-01   1.00800           0
     11757 MEMB     82       DOPC     C215     CTL2    -0.180000       12.0110           0
     11758 MEMB     82       DOPC     H15R     HAL2     0.900000E-01   1.00800           0
     11759 MEMB     82       DOPC     H15S     HAL2     0.900000E-01   1.00800           0
     11760 MEMB     82       DOPC     C216     CTL2    -0.180000       12.0110           0
     11761 MEMB     82       DOPC     H16R     HAL2     0.900000E-01   1.00800           0
     11762 MEMB     82       DOPC     H16S     HAL2     0.900000E-01   1.00800           0
     11763 MEMB     82       DOPC     C217     CTL2    -0.180000       12.0110           0
     11764 MEMB     82       DOPC     H17R     HAL2     0.900000E-01   1.00800           0
     11765 MEMB     82       DOPC     H17S     HAL2     0.900000E-01   1.00800           0
     11766 MEMB     82       DOPC     C218     CTL3    -0.270000       12.0110           0
     11767 MEMB     82       DOPC     H18R     HAL3     0.900000E-01   1.00800           0
     11768 MEMB     82       DOPC     H18S     HAL3     0.900000E-01   1.00800           0
     11769 MEMB     82       DOPC     H18T     HAL3     0.900000E-01   1.00800           0
     11770 MEMB     82       DOPC     C33      CTL2    -0.180000       12.0110           0
     11771 MEMB     82       DOPC     H3X      HAL2     0.900000E-01   1.00800           0
     11772 MEMB     82       DOPC     H3Y      HAL2     0.900000E-01   1.00800           0
     11773 MEMB     82       DOPC     C34      CTL2    -0.180000       12.0110           0
     11774 MEMB     82       DOPC     H4X      HAL2     0.900000E-01   1.00800           0
     11775 MEMB     82       DOPC     H4Y      HAL2     0.900000E-01   1.00800           0
     11776 MEMB     82       DOPC     C35      CTL2    -0.180000       12.0110           0
     11777 MEMB     82       DOPC     H5X      HAL2     0.900000E-01   1.00800           0
     11778 MEMB     82       DOPC     H5Y      HAL2     0.900000E-01   1.00800           0
     11779 MEMB     82       DOPC     C36      CTL2    -0.180000       12.0110           0
     11780 MEMB     82       DOPC     H6X      HAL2     0.900000E-01   1.00800           0
     11781 MEMB     82       DOPC     H6Y      HAL2     0.900000E-01   1.00800           0
     11782 MEMB     82       DOPC     C37      CTL2    -0.180000       12.0110           0
     11783 MEMB     82       DOPC     H7X      HAL2     0.900000E-01   1.00800           0
     11784 MEMB     82       DOPC     H7Y      HAL2     0.900000E-01   1.00800           0
     11785 MEMB     82       DOPC     C38      CTL2    -0.180000       12.0110           0
     11786 MEMB     82       DOPC     H8X      HAL2     0.900000E-01   1.00800           0
     11787 MEMB     82       DOPC     H8Y      HAL2     0.900000E-01   1.00800           0
     11788 MEMB     82       DOPC     C39      CEL1    -0.150000       12.0110           0
     11789 MEMB     82       DOPC     H9X      HEL1     0.150000       1.00800           0
     11790 MEMB     82       DOPC     C310     CEL1    -0.150000       12.0110           0
     11791 MEMB     82       DOPC     H10X     HEL1     0.150000       1.00800           0
     11792 MEMB     82       DOPC     C311     CTL2    -0.180000       12.0110           0
     11793 MEMB     82       DOPC     H11X     HAL2     0.900000E-01   1.00800           0
     11794 MEMB     82       DOPC     H11Y     HAL2     0.900000E-01   1.00800           0
     11795 MEMB     82       DOPC     C312     CTL2    -0.180000       12.0110           0
     11796 MEMB     82       DOPC     H12X     HAL2     0.900000E-01   1.00800           0
     11797 MEMB     82       DOPC     H12Y     HAL2     0.900000E-01   1.00800           0
     11798 MEMB     82       DOPC     C313     CTL2    -0.180000       12.0110           0
     11799 MEMB     82       DOPC     H13X     HAL2     0.900000E-01   1.00800           0
     11800 MEMB     82       DOPC     H13Y     HAL2     0.900000E-01   1.00800           0
     11801 MEMB     82       DOPC     C314     CTL2    -0.180000       12.0110           0
     11802 MEMB     82       DOPC     H14X     HAL2     0.900000E-01   1.00800           0
     11803 MEMB     82       DOPC     H14Y     HAL2     0.900000E-01   1.00800           0
     11804 MEMB     82       DOPC     C315     CTL2    -0.180000       12.0110           0
     11805 MEMB     82       DOPC     H15X     HAL2     0.900000E-01   1.00800           0
     11806 MEMB     82       DOPC     H15Y     HAL2     0.900000E-01   1.00800           0
     11807 MEMB     82       DOPC     C316     CTL2    -0.180000       12.0110           0
     11808 MEMB     82       DOPC     H16X     HAL2     0.900000E-01   1.00800           0
     11809 MEMB     82       DOPC     H16Y     HAL2     0.900000E-01   1.00800           0
     11810 MEMB     82       DOPC     C317     CTL2    -0.180000       12.0110           0
     11811 MEMB     82       DOPC     H17X     HAL2     0.900000E-01   1.00800           0
     11812 MEMB     82       DOPC     H17Y     HAL2     0.900000E-01   1.00800           0
     11813 MEMB     82       DOPC     C318     CTL3    -0.270000       12.0110           0
     11814 MEMB     82       DOPC     H18X     HAL3     0.900000E-01   1.00800           0
     11815 MEMB     82       DOPC     H18Y     HAL3     0.900000E-01   1.00800           0
     11816 MEMB     82       DOPC     H18Z     HAL3     0.900000E-01   1.00800           0
     11817 MEMB     83       DOPC     N        NTL     -0.600000       14.0070           0
     11818 MEMB     83       DOPC     C12      CTL2    -0.100000       12.0110           0
     11819 MEMB     83       DOPC     H12A     HL       0.250000       1.00800           0
     11820 MEMB     83       DOPC     H12B     HL       0.250000       1.00800           0
     11821 MEMB     83       DOPC     C13      CTL5    -0.350000       12.0110           0
     11822 MEMB     83       DOPC     H13A     HL       0.250000       1.00800           0
     11823 MEMB     83       DOPC     H13B     HL       0.250000       1.00800           0
     11824 MEMB     83       DOPC     H13C     HL       0.250000       1.00800           0
     11825 MEMB     83       DOPC     C14      CTL5    -0.350000       12.0110           0
     11826 MEMB     83       DOPC     H14A     HL       0.250000       1.00800           0
     11827 MEMB     83       DOPC     H14B     HL       0.250000       1.00800           0
     11828 MEMB     83       DOPC     H14C     HL       0.250000       1.00800           0
     11829 MEMB     83       DOPC     C15      CTL5    -0.350000       12.0110           0
     11830 MEMB     83       DOPC     H15A     HL       0.250000       1.00800           0
     11831 MEMB     83       DOPC     H15B     HL       0.250000       1.00800           0
     11832 MEMB     83       DOPC     H15C     HL       0.250000       1.00800           0
     11833 MEMB     83       DOPC     C11      CTL2    -0.800000E-01   12.0110           0
     11834 MEMB     83       DOPC     H11A     HAL2     0.900000E-01   1.00800           0
     11835 MEMB     83       DOPC     H11B     HAL2     0.900000E-01   1.00800           0
     11836 MEMB     83       DOPC     P        PL        1.50000       30.9740           0
     11837 MEMB     83       DOPC     O13      O2L     -0.780000       15.9994           0
     11838 MEMB     83       DOPC     O14      O2L     -0.780000       15.9994           0
     11839 MEMB     83       DOPC     O12      OSLP    -0.570000       15.9994           0
     11840 MEMB     83       DOPC     O11      OSLP    -0.570000       15.9994           0
     11841 MEMB     83       DOPC     C1       CTL2    -0.800000E-01   12.0110           0
     11842 MEMB     83       DOPC     HA       HAL2     0.900000E-01   1.00800           0
     11843 MEMB     83       DOPC     HB       HAL2     0.900000E-01   1.00800           0
     11844 MEMB     83       DOPC     C2       CTL1     0.170000       12.0110           0
     11845 MEMB     83       DOPC     HS       HAL1     0.900000E-01   1.00800           0
     11846 MEMB     83       DOPC     O21      OSL     -0.490000       15.9994           0
     11847 MEMB     83       DOPC     C21      CL       0.900000       12.0110           0
     11848 MEMB     83       DOPC     O22      OBL     -0.630000       15.9994           0
     11849 MEMB     83       DOPC     C22      CTL2    -0.220000       12.0110           0
     11850 MEMB     83       DOPC     H2R      HAL2     0.900000E-01   1.00800           0
     11851 MEMB     83       DOPC     H2S      HAL2     0.900000E-01   1.00800           0
     11852 MEMB     83       DOPC     C3       CTL2     0.800000E-01   12.0110           0
     11853 MEMB     83       DOPC     HX       HAL2     0.900000E-01   1.00800           0
     11854 MEMB     83       DOPC     HY       HAL2     0.900000E-01   1.00800           0
     11855 MEMB     83       DOPC     O31      OSL     -0.490000       15.9994           0
     11856 MEMB     83       DOPC     C31      CL       0.900000       12.0110           0
     11857 MEMB     83       DOPC     O32      OBL     -0.630000       15.9994           0
     11858 MEMB     83       DOPC     C32      CTL2    -0.220000       12.0110           0
     11859 MEMB     83       DOPC     H2X      HAL2     0.900000E-01   1.00800           0
     11860 MEMB     83       DOPC     H2Y      HAL2     0.900000E-01   1.00800           0
     11861 MEMB     83       DOPC     C23      CTL2    -0.180000       12.0110           0
     11862 MEMB     83       DOPC     H3R      HAL2     0.900000E-01   1.00800           0
     11863 MEMB     83       DOPC     H3S      HAL2     0.900000E-01   1.00800           0
     11864 MEMB     83       DOPC     C24      CTL2    -0.180000       12.0110           0
     11865 MEMB     83       DOPC     H4R      HAL2     0.900000E-01   1.00800           0
     11866 MEMB     83       DOPC     H4S      HAL2     0.900000E-01   1.00800           0
     11867 MEMB     83       DOPC     C25      CTL2    -0.180000       12.0110           0
     11868 MEMB     83       DOPC     H5R      HAL2     0.900000E-01   1.00800           0
     11869 MEMB     83       DOPC     H5S      HAL2     0.900000E-01   1.00800           0
     11870 MEMB     83       DOPC     C26      CTL2    -0.180000       12.0110           0
     11871 MEMB     83       DOPC     H6R      HAL2     0.900000E-01   1.00800           0
     11872 MEMB     83       DOPC     H6S      HAL2     0.900000E-01   1.00800           0
     11873 MEMB     83       DOPC     C27      CTL2    -0.180000       12.0110           0
     11874 MEMB     83       DOPC     H7R      HAL2     0.900000E-01   1.00800           0
     11875 MEMB     83       DOPC     H7S      HAL2     0.900000E-01   1.00800           0
     11876 MEMB     83       DOPC     C28      CTL2    -0.180000       12.0110           0
     11877 MEMB     83       DOPC     H8R      HAL2     0.900000E-01   1.00800           0
     11878 MEMB     83       DOPC     H8S      HAL2     0.900000E-01   1.00800           0
     11879 MEMB     83       DOPC     C29      CEL1    -0.150000       12.0110           0
     11880 MEMB     83       DOPC     H9R      HEL1     0.150000       1.00800           0
     11881 MEMB     83       DOPC     C210     CEL1    -0.150000       12.0110           0
     11882 MEMB     83       DOPC     H10R     HEL1     0.150000       1.00800           0
     11883 MEMB     83       DOPC     C211     CTL2    -0.180000       12.0110           0
     11884 MEMB     83       DOPC     H11R     HAL2     0.900000E-01   1.00800           0
     11885 MEMB     83       DOPC     H11S     HAL2     0.900000E-01   1.00800           0
     11886 MEMB     83       DOPC     C212     CTL2    -0.180000       12.0110           0
     11887 MEMB     83       DOPC     H12R     HAL2     0.900000E-01   1.00800           0
     11888 MEMB     83       DOPC     H12S     HAL2     0.900000E-01   1.00800           0
     11889 MEMB     83       DOPC     C213     CTL2    -0.180000       12.0110           0
     11890 MEMB     83       DOPC     H13R     HAL2     0.900000E-01   1.00800           0
     11891 MEMB     83       DOPC     H13S     HAL2     0.900000E-01   1.00800           0
     11892 MEMB     83       DOPC     C214     CTL2    -0.180000       12.0110           0
     11893 MEMB     83       DOPC     H14R     HAL2     0.900000E-01   1.00800           0
     11894 MEMB     83       DOPC     H14S     HAL2     0.900000E-01   1.00800           0
     11895 MEMB     83       DOPC     C215     CTL2    -0.180000       12.0110           0
     11896 MEMB     83       DOPC     H15R     HAL2     0.900000E-01   1.00800           0
     11897 MEMB     83       DOPC     H15S     HAL2     0.900000E-01   1.00800           0
     11898 MEMB     83       DOPC     C216     CTL2    -0.180000       12.0110           0
     11899 MEMB     83       DOPC     H16R     HAL2     0.900000E-01   1.00800           0
     11900 MEMB     83       DOPC     H16S     HAL2     0.900000E-01   1.00800           0
     11901 MEMB     83       DOPC     C217     CTL2    -0.180000       12.0110           0
     11902 MEMB     83       DOPC     H17R     HAL2     0.900000E-01   1.00800           0
     11903 MEMB     83       DOPC     H17S     HAL2     0.900000E-01   1.00800           0
     11904 MEMB     83       DOPC     C218     CTL3    -0.270000       12.0110           0
     11905 MEMB     83       DOPC     H18R     HAL3     0.900000E-01   1.00800           0
     11906 MEMB     83       DOPC     H18S     HAL3     0.900000E-01   1.00800           0
     11907 MEMB     83       DOPC     H18T     HAL3     0.900000E-01   1.00800           0
     11908 MEMB     83       DOPC     C33      CTL2    -0.180000       12.0110           0
     11909 MEMB     83       DOPC     H3X      HAL2     0.900000E-01   1.00800           0
     11910 MEMB     83       DOPC     H3Y      HAL2     0.900000E-01   1.00800           0
     11911 MEMB     83       DOPC     C34      CTL2    -0.180000       12.0110           0
     11912 MEMB     83       DOPC     H4X      HAL2     0.900000E-01   1.00800           0
     11913 MEMB     83       DOPC     H4Y      HAL2     0.900000E-01   1.00800           0
     11914 MEMB     83       DOPC     C35      CTL2    -0.180000       12.0110           0
     11915 MEMB     83       DOPC     H5X      HAL2     0.900000E-01   1.00800           0
     11916 MEMB     83       DOPC     H5Y      HAL2     0.900000E-01   1.00800           0
     11917 MEMB     83       DOPC     C36      CTL2    -0.180000       12.0110           0
     11918 MEMB     83       DOPC     H6X      HAL2     0.900000E-01   1.00800           0
     11919 MEMB     83       DOPC     H6Y      HAL2     0.900000E-01   1.00800           0
     11920 MEMB     83       DOPC     C37      CTL2    -0.180000       12.0110           0
     11921 MEMB     83       DOPC     H7X      HAL2     0.900000E-01   1.00800           0
     11922 MEMB     83       DOPC     H7Y      HAL2     0.900000E-01   1.00800           0
     11923 MEMB     83       DOPC     C38      CTL2    -0.180000       12.0110           0
     11924 MEMB     83       DOPC     H8X      HAL2     0.900000E-01   1.00800           0
     11925 MEMB     83       DOPC     H8Y      HAL2     0.900000E-01   1.00800           0
     11926 MEMB     83       DOPC     C39      CEL1    -0.150000       12.0110           0
     11927 MEMB     83       DOPC     H9X      HEL1     0.150000       1.00800           0
     11928 MEMB     83       DOPC     C310     CEL1    -0.150000       12.0110           0
     11929 MEMB     83       DOPC     H10X     HEL1     0.150000       1.00800           0
     11930 MEMB     83       DOPC     C311     CTL2    -0.180000       12.0110           0
     11931 MEMB     83       DOPC     H11X     HAL2     0.900000E-01   1.00800           0
     11932 MEMB     83       DOPC     H11Y     HAL2     0.900000E-01   1.00800           0
     11933 MEMB     83       DOPC     C312     CTL2    -0.180000       12.0110           0
     11934 MEMB     83       DOPC     H12X     HAL2     0.900000E-01   1.00800           0
     11935 MEMB     83       DOPC     H12Y     HAL2     0.900000E-01   1.00800           0
     11936 MEMB     83       DOPC     C313     CTL2    -0.180000       12.0110           0
     11937 MEMB     83       DOPC     H13X     HAL2     0.900000E-01   1.00800           0
     11938 MEMB     83       DOPC     H13Y     HAL2     0.900000E-01   1.00800           0
     11939 MEMB     83       DOPC     C314     CTL2    -0.180000       12.0110           0
     11940 MEMB     83       DOPC     H14X     HAL2     0.900000E-01   1.00800           0
     11941 MEMB     83       DOPC     H14Y     HAL2     0.900000E-01   1.00800           0
     11942 MEMB     83       DOPC     C315     CTL2    -0.180000       12.0110           0
     11943 MEMB     83       DOPC     H15X     HAL2     0.900000E-01   1.00800           0
     11944 MEMB     83       DOPC     H15Y     HAL2     0.900000E-01   1.00800           0
     11945 MEMB     83       DOPC     C316     CTL2    -0.180000       12.0110           0
     11946 MEMB     83       DOPC     H16X     HAL2     0.900000E-01   1.00800           0
     11947 MEMB     83       DOPC     H16Y     HAL2     0.900000E-01   1.00800           0
     11948 MEMB     83       DOPC     C317     CTL2    -0.180000       12.0110           0
     11949 MEMB     83       DOPC     H17X     HAL2     0.900000E-01   1.00800           0
     11950 MEMB     83       DOPC     H17Y     HAL2     0.900000E-01   1.00800           0
     11951 MEMB     83       DOPC     C318     CTL3    -0.270000       12.0110           0
     11952 MEMB     83       DOPC     H18X     HAL3     0.900000E-01   1.00800           0
     11953 MEMB     83       DOPC     H18Y     HAL3     0.900000E-01   1.00800           0
     11954 MEMB     83       DOPC     H18Z     HAL3     0.900000E-01   1.00800           0
     11955 MEMB     84       DOPC     N        NTL     -0.600000       14.0070           0
     11956 MEMB     84       DOPC     C12      CTL2    -0.100000       12.0110           0
     11957 MEMB     84       DOPC     H12A     HL       0.250000       1.00800           0
     11958 MEMB     84       DOPC     H12B     HL       0.250000       1.00800           0
     11959 MEMB     84       DOPC     C13      CTL5    -0.350000       12.0110           0
     11960 MEMB     84       DOPC     H13A     HL       0.250000       1.00800           0
     11961 MEMB     84       DOPC     H13B     HL       0.250000       1.00800           0
     11962 MEMB     84       DOPC     H13C     HL       0.250000       1.00800           0
     11963 MEMB     84       DOPC     C14      CTL5    -0.350000       12.0110           0
     11964 MEMB     84       DOPC     H14A     HL       0.250000       1.00800           0
     11965 MEMB     84       DOPC     H14B     HL       0.250000       1.00800           0
     11966 MEMB     84       DOPC     H14C     HL       0.250000       1.00800           0
     11967 MEMB     84       DOPC     C15      CTL5    -0.350000       12.0110           0
     11968 MEMB     84       DOPC     H15A     HL       0.250000       1.00800           0
     11969 MEMB     84       DOPC     H15B     HL       0.250000       1.00800           0
     11970 MEMB     84       DOPC     H15C     HL       0.250000       1.00800           0
     11971 MEMB     84       DOPC     C11      CTL2    -0.800000E-01   12.0110           0
     11972 MEMB     84       DOPC     H11A     HAL2     0.900000E-01   1.00800           0
     11973 MEMB     84       DOPC     H11B     HAL2     0.900000E-01   1.00800           0
     11974 MEMB     84       DOPC     P        PL        1.50000       30.9740           0
     11975 MEMB     84       DOPC     O13      O2L     -0.780000       15.9994           0
     11976 MEMB     84       DOPC     O14      O2L     -0.780000       15.9994           0
     11977 MEMB     84       DOPC     O12      OSLP    -0.570000       15.9994           0
     11978 MEMB     84       DOPC     O11      OSLP    -0.570000       15.9994           0
     11979 MEMB     84       DOPC     C1       CTL2    -0.800000E-01   12.0110           0
     11980 MEMB     84       DOPC     HA       HAL2     0.900000E-01   1.00800           0
     11981 MEMB     84       DOPC     HB       HAL2     0.900000E-01   1.00800           0
     11982 MEMB     84       DOPC     C2       CTL1     0.170000       12.0110           0
     11983 MEMB     84       DOPC     HS       HAL1     0.900000E-01   1.00800           0
     11984 MEMB     84       DOPC     O21      OSL     -0.490000       15.9994           0
     11985 MEMB     84       DOPC     C21      CL       0.900000       12.0110           0
     11986 MEMB     84       DOPC     O22      OBL     -0.630000       15.9994           0
     11987 MEMB     84       DOPC     C22      CTL2    -0.220000       12.0110           0
     11988 MEMB     84       DOPC     H2R      HAL2     0.900000E-01   1.00800           0
     11989 MEMB     84       DOPC     H2S      HAL2     0.900000E-01   1.00800           0
     11990 MEMB     84       DOPC     C3       CTL2     0.800000E-01   12.0110           0
     11991 MEMB     84       DOPC     HX       HAL2     0.900000E-01   1.00800           0
     11992 MEMB     84       DOPC     HY       HAL2     0.900000E-01   1.00800           0
     11993 MEMB     84       DOPC     O31      OSL     -0.490000       15.9994           0
     11994 MEMB     84       DOPC     C31      CL       0.900000       12.0110           0
     11995 MEMB     84       DOPC     O32      OBL     -0.630000       15.9994           0
     11996 MEMB     84       DOPC     C32      CTL2    -0.220000       12.0110           0
     11997 MEMB     84       DOPC     H2X      HAL2     0.900000E-01   1.00800           0
     11998 MEMB     84       DOPC     H2Y      HAL2     0.900000E-01   1.00800           0
     11999 MEMB     84       DOPC     C23      CTL2    -0.180000       12.0110           0
     12000 MEMB     84       DOPC     H3R      HAL2     0.900000E-01   1.00800           0
     12001 MEMB     84       DOPC     H3S      HAL2     0.900000E-01   1.00800           0
     12002 MEMB     84       DOPC     C24      CTL2    -0.180000       12.0110           0
     12003 MEMB     84       DOPC     H4R      HAL2     0.900000E-01   1.00800           0
     12004 MEMB     84       DOPC     H4S      HAL2     0.900000E-01   1.00800           0
     12005 MEMB     84       DOPC     C25      CTL2    -0.180000       12.0110           0
     12006 MEMB     84       DOPC     H5R      HAL2     0.900000E-01   1.00800           0
     12007 MEMB     84       DOPC     H5S      HAL2     0.900000E-01   1.00800           0
     12008 MEMB     84       DOPC     C26      CTL2    -0.180000       12.0110           0
     12009 MEMB     84       DOPC     H6R      HAL2     0.900000E-01   1.00800           0
     12010 MEMB     84       DOPC     H6S      HAL2     0.900000E-01   1.00800           0
     12011 MEMB     84       DOPC     C27      CTL2    -0.180000       12.0110           0
     12012 MEMB     84       DOPC     H7R      HAL2     0.900000E-01   1.00800           0
     12013 MEMB     84       DOPC     H7S      HAL2     0.900000E-01   1.00800           0
     12014 MEMB     84       DOPC     C28      CTL2    -0.180000       12.0110           0
     12015 MEMB     84       DOPC     H8R      HAL2     0.900000E-01   1.00800           0
     12016 MEMB     84       DOPC     H8S      HAL2     0.900000E-01   1.00800           0
     12017 MEMB     84       DOPC     C29      CEL1    -0.150000       12.0110           0
     12018 MEMB     84       DOPC     H9R      HEL1     0.150000       1.00800           0
     12019 MEMB     84       DOPC     C210     CEL1    -0.150000       12.0110           0
     12020 MEMB     84       DOPC     H10R     HEL1     0.150000       1.00800           0
     12021 MEMB     84       DOPC     C211     CTL2    -0.180000       12.0110           0
     12022 MEMB     84       DOPC     H11R     HAL2     0.900000E-01   1.00800           0
     12023 MEMB     84       DOPC     H11S     HAL2     0.900000E-01   1.00800           0
     12024 MEMB     84       DOPC     C212     CTL2    -0.180000       12.0110           0
     12025 MEMB     84       DOPC     H12R     HAL2     0.900000E-01   1.00800           0
     12026 MEMB     84       DOPC     H12S     HAL2     0.900000E-01   1.00800           0
     12027 MEMB     84       DOPC     C213     CTL2    -0.180000       12.0110           0
     12028 MEMB     84       DOPC     H13R     HAL2     0.900000E-01   1.00800           0
     12029 MEMB     84       DOPC     H13S     HAL2     0.900000E-01   1.00800           0
     12030 MEMB     84       DOPC     C214     CTL2    -0.180000       12.0110           0
     12031 MEMB     84       DOPC     H14R     HAL2     0.900000E-01   1.00800           0
     12032 MEMB     84       DOPC     H14S     HAL2     0.900000E-01   1.00800           0
     12033 MEMB     84       DOPC     C215     CTL2    -0.180000       12.0110           0
     12034 MEMB     84       DOPC     H15R     HAL2     0.900000E-01   1.00800           0
     12035 MEMB     84       DOPC     H15S     HAL2     0.900000E-01   1.00800           0
     12036 MEMB     84       DOPC     C216     CTL2    -0.180000       12.0110           0
     12037 MEMB     84       DOPC     H16R     HAL2     0.900000E-01   1.00800           0
     12038 MEMB     84       DOPC     H16S     HAL2     0.900000E-01   1.00800           0
     12039 MEMB     84       DOPC     C217     CTL2    -0.180000       12.0110           0
     12040 MEMB     84       DOPC     H17R     HAL2     0.900000E-01   1.00800           0
     12041 MEMB     84       DOPC     H17S     HAL2     0.900000E-01   1.00800           0
     12042 MEMB     84       DOPC     C218     CTL3    -0.270000       12.0110           0
     12043 MEMB     84       DOPC     H18R     HAL3     0.900000E-01   1.00800           0
     12044 MEMB     84       DOPC     H18S     HAL3     0.900000E-01   1.00800           0
     12045 MEMB     84       DOPC     H18T     HAL3     0.900000E-01   1.00800           0
     12046 MEMB     84       DOPC     C33      CTL2    -0.180000       12.0110           0
     12047 MEMB     84       DOPC     H3X      HAL2     0.900000E-01   1.00800           0
     12048 MEMB     84       DOPC     H3Y      HAL2     0.900000E-01   1.00800           0
     12049 MEMB     84       DOPC     C34      CTL2    -0.180000       12.0110           0
     12050 MEMB     84       DOPC     H4X      HAL2     0.900000E-01   1.00800           0
     12051 MEMB     84       DOPC     H4Y      HAL2     0.900000E-01   1.00800           0
     12052 MEMB     84       DOPC     C35      CTL2    -0.180000       12.0110           0
     12053 MEMB     84       DOPC     H5X      HAL2     0.900000E-01   1.00800           0
     12054 MEMB     84       DOPC     H5Y      HAL2     0.900000E-01   1.00800           0
     12055 MEMB     84       DOPC     C36      CTL2    -0.180000       12.0110           0
     12056 MEMB     84       DOPC     H6X      HAL2     0.900000E-01   1.00800           0
     12057 MEMB     84       DOPC     H6Y      HAL2     0.900000E-01   1.00800           0
     12058 MEMB     84       DOPC     C37      CTL2    -0.180000       12.0110           0
     12059 MEMB     84       DOPC     H7X      HAL2     0.900000E-01   1.00800           0
     12060 MEMB     84       DOPC     H7Y      HAL2     0.900000E-01   1.00800           0
     12061 MEMB     84       DOPC     C38      CTL2    -0.180000       12.0110           0
     12062 MEMB     84       DOPC     H8X      HAL2     0.900000E-01   1.00800           0
     12063 MEMB     84       DOPC     H8Y      HAL2     0.900000E-01   1.00800           0
     12064 MEMB     84       DOPC     C39      CEL1    -0.150000       12.0110           0
     12065 MEMB     84       DOPC     H9X      HEL1     0.150000       1.00800           0
     12066 MEMB     84       DOPC     C310     CEL1    -0.150000       12.0110           0
     12067 MEMB     84       DOPC     H10X     HEL1     0.150000       1.00800           0
     12068 MEMB     84       DOPC     C311     CTL2    -0.180000       12.0110           0
     12069 MEMB     84       DOPC     H11X     HAL2     0.900000E-01   1.00800           0
     12070 MEMB     84       DOPC     H11Y     HAL2     0.900000E-01   1.00800           0
     12071 MEMB     84       DOPC     C312     CTL2    -0.180000       12.0110           0
     12072 MEMB     84       DOPC     H12X     HAL2     0.900000E-01   1.00800           0
     12073 MEMB     84       DOPC     H12Y     HAL2     0.900000E-01   1.00800           0
     12074 MEMB     84       DOPC     C313     CTL2    -0.180000       12.0110           0
     12075 MEMB     84       DOPC     H13X     HAL2     0.900000E-01   1.00800           0
     12076 MEMB     84       DOPC     H13Y     HAL2     0.900000E-01   1.00800           0
     12077 MEMB     84       DOPC     C314     CTL2    -0.180000       12.0110           0
     12078 MEMB     84       DOPC     H14X     HAL2     0.900000E-01   1.00800           0
     12079 MEMB     84       DOPC     H14Y     HAL2     0.900000E-01   1.00800           0
     12080 MEMB     84       DOPC     C315     CTL2    -0.180000       12.0110           0
     12081 MEMB     84       DOPC     H15X     HAL2     0.900000E-01   1.00800           0
     12082 MEMB     84       DOPC     H15Y     HAL2     0.900000E-01   1.00800           0
     12083 MEMB     84       DOPC     C316     CTL2    -0.180000       12.0110           0
     12084 MEMB     84       DOPC     H16X     HAL2     0.900000E-01   1.00800           0
     12085 MEMB     84       DOPC     H16Y     HAL2     0.900000E-01   1.00800           0
     12086 MEMB     84       DOPC     C317     CTL2    -0.180000       12.0110           0
     12087 MEMB     84       DOPC     H17X     HAL2     0.900000E-01   1.00800           0
     12088 MEMB     84       DOPC     H17Y     HAL2     0.900000E-01   1.00800           0
     12089 MEMB     84       DOPC     C318     CTL3    -0.270000       12.0110           0
     12090 MEMB     84       DOPC     H18X     HAL3     0.900000E-01   1.00800           0
     12091 MEMB     84       DOPC     H18Y     HAL3     0.900000E-01   1.00800           0
     12092 MEMB     84       DOPC     H18Z     HAL3     0.900000E-01   1.00800           0
     12093 MEMB     85       DOPC     N        NTL     -0.600000       14.0070           0
     12094 MEMB     85       DOPC     C12      CTL2    -0.100000       12.0110           0
     12095 MEMB     85       DOPC     H12A     HL       0.250000       1.00800           0
     12096 MEMB     85       DOPC     H12B     HL       0.250000       1.00800           0
     12097 MEMB     85       DOPC     C13      CTL5    -0.350000       12.0110           0
     12098 MEMB     85       DOPC     H13A     HL       0.250000       1.00800           0
     12099 MEMB     85       DOPC     H13B     HL       0.250000       1.00800           0
     12100 MEMB     85       DOPC     H13C     HL       0.250000       1.00800           0
     12101 MEMB     85       DOPC     C14      CTL5    -0.350000       12.0110           0
     12102 MEMB     85       DOPC     H14A     HL       0.250000       1.00800           0
     12103 MEMB     85       DOPC     H14B     HL       0.250000       1.00800           0
     12104 MEMB     85       DOPC     H14C     HL       0.250000       1.00800           0
     12105 MEMB     85       DOPC     C15      CTL5    -0.350000       12.0110           0
     12106 MEMB     85       DOPC     H15A     HL       0.250000       1.00800           0
     12107 MEMB     85       DOPC     H15B     HL       0.250000       1.00800           0
     12108 MEMB     85       DOPC     H15C     HL       0.250000       1.00800           0
     12109 MEMB     85       DOPC     C11      CTL2    -0.800000E-01   12.0110           0
     12110 MEMB     85       DOPC     H11A     HAL2     0.900000E-01   1.00800           0
     12111 MEMB     85       DOPC     H11B     HAL2     0.900000E-01   1.00800           0
     12112 MEMB     85       DOPC     P        PL        1.50000       30.9740           0
     12113 MEMB     85       DOPC     O13      O2L     -0.780000       15.9994           0
     12114 MEMB     85       DOPC     O14      O2L     -0.780000       15.9994           0
     12115 MEMB     85       DOPC     O12      OSLP    -0.570000       15.9994           0
     12116 MEMB     85       DOPC     O11      OSLP    -0.570000       15.9994           0
     12117 MEMB     85       DOPC     C1       CTL2    -0.800000E-01   12.0110           0
     12118 MEMB     85       DOPC     HA       HAL2     0.900000E-01   1.00800           0
     12119 MEMB     85       DOPC     HB       HAL2     0.900000E-01   1.00800           0
     12120 MEMB     85       DOPC     C2       CTL1     0.170000       12.0110           0
     12121 MEMB     85       DOPC     HS       HAL1     0.900000E-01   1.00800           0
     12122 MEMB     85       DOPC     O21      OSL     -0.490000       15.9994           0
     12123 MEMB     85       DOPC     C21      CL       0.900000       12.0110           0
     12124 MEMB     85       DOPC     O22      OBL     -0.630000       15.9994           0
     12125 MEMB     85       DOPC     C22      CTL2    -0.220000       12.0110           0
     12126 MEMB     85       DOPC     H2R      HAL2     0.900000E-01   1.00800           0
     12127 MEMB     85       DOPC     H2S      HAL2     0.900000E-01   1.00800           0
     12128 MEMB     85       DOPC     C3       CTL2     0.800000E-01   12.0110           0
     12129 MEMB     85       DOPC     HX       HAL2     0.900000E-01   1.00800           0
     12130 MEMB     85       DOPC     HY       HAL2     0.900000E-01   1.00800           0
     12131 MEMB     85       DOPC     O31      OSL     -0.490000       15.9994           0
     12132 MEMB     85       DOPC     C31      CL       0.900000       12.0110           0
     12133 MEMB     85       DOPC     O32      OBL     -0.630000       15.9994           0
     12134 MEMB     85       DOPC     C32      CTL2    -0.220000       12.0110           0
     12135 MEMB     85       DOPC     H2X      HAL2     0.900000E-01   1.00800           0
     12136 MEMB     85       DOPC     H2Y      HAL2     0.900000E-01   1.00800           0
     12137 MEMB     85       DOPC     C23      CTL2    -0.180000       12.0110           0
     12138 MEMB     85       DOPC     H3R      HAL2     0.900000E-01   1.00800           0
     12139 MEMB     85       DOPC     H3S      HAL2     0.900000E-01   1.00800           0
     12140 MEMB     85       DOPC     C24      CTL2    -0.180000       12.0110           0
     12141 MEMB     85       DOPC     H4R      HAL2     0.900000E-01   1.00800           0
     12142 MEMB     85       DOPC     H4S      HAL2     0.900000E-01   1.00800           0
     12143 MEMB     85       DOPC     C25      CTL2    -0.180000       12.0110           0
     12144 MEMB     85       DOPC     H5R      HAL2     0.900000E-01   1.00800           0
     12145 MEMB     85       DOPC     H5S      HAL2     0.900000E-01   1.00800           0
     12146 MEMB     85       DOPC     C26      CTL2    -0.180000       12.0110           0
     12147 MEMB     85       DOPC     H6R      HAL2     0.900000E-01   1.00800           0
     12148 MEMB     85       DOPC     H6S      HAL2     0.900000E-01   1.00800           0
     12149 MEMB     85       DOPC     C27      CTL2    -0.180000       12.0110           0
     12150 MEMB     85       DOPC     H7R      HAL2     0.900000E-01   1.00800           0
     12151 MEMB     85       DOPC     H7S      HAL2     0.900000E-01   1.00800           0
     12152 MEMB     85       DOPC     C28      CTL2    -0.180000       12.0110           0
     12153 MEMB     85       DOPC     H8R      HAL2     0.900000E-01   1.00800           0
     12154 MEMB     85       DOPC     H8S      HAL2     0.900000E-01   1.00800           0
     12155 MEMB     85       DOPC     C29      CEL1    -0.150000       12.0110           0
     12156 MEMB     85       DOPC     H9R      HEL1     0.150000       1.00800           0
     12157 MEMB     85       DOPC     C210     CEL1    -0.150000       12.0110           0
     12158 MEMB     85       DOPC     H10R     HEL1     0.150000       1.00800           0
     12159 MEMB     85       DOPC     C211     CTL2    -0.180000       12.0110           0
     12160 MEMB     85       DOPC     H11R     HAL2     0.900000E-01   1.00800           0
     12161 MEMB     85       DOPC     H11S     HAL2     0.900000E-01   1.00800           0
     12162 MEMB     85       DOPC     C212     CTL2    -0.180000       12.0110           0
     12163 MEMB     85       DOPC     H12R     HAL2     0.900000E-01   1.00800           0
     12164 MEMB     85       DOPC     H12S     HAL2     0.900000E-01   1.00800           0
     12165 MEMB     85       DOPC     C213     CTL2    -0.180000       12.0110           0
     12166 MEMB     85       DOPC     H13R     HAL2     0.900000E-01   1.00800           0
     12167 MEMB     85       DOPC     H13S     HAL2     0.900000E-01   1.00800           0
     12168 MEMB     85       DOPC     C214     CTL2    -0.180000       12.0110           0
     12169 MEMB     85       DOPC     H14R     HAL2     0.900000E-01   1.00800           0
     12170 MEMB     85       DOPC     H14S     HAL2     0.900000E-01   1.00800           0
     12171 MEMB     85       DOPC     C215     CTL2    -0.180000       12.0110           0
     12172 MEMB     85       DOPC     H15R     HAL2     0.900000E-01   1.00800           0
     12173 MEMB     85       DOPC     H15S     HAL2     0.900000E-01   1.00800           0
     12174 MEMB     85       DOPC     C216     CTL2    -0.180000       12.0110           0
     12175 MEMB     85       DOPC     H16R     HAL2     0.900000E-01   1.00800           0
     12176 MEMB     85       DOPC     H16S     HAL2     0.900000E-01   1.00800           0
     12177 MEMB     85       DOPC     C217     CTL2    -0.180000       12.0110           0
     12178 MEMB     85       DOPC     H17R     HAL2     0.900000E-01   1.00800           0
     12179 MEMB     85       DOPC     H17S     HAL2     0.900000E-01   1.00800           0
     12180 MEMB     85       DOPC     C218     CTL3    -0.270000       12.0110           0
     12181 MEMB     85       DOPC     H18R     HAL3     0.900000E-01   1.00800           0
     12182 MEMB     85       DOPC     H18S     HAL3     0.900000E-01   1.00800           0
     12183 MEMB     85       DOPC     H18T     HAL3     0.900000E-01   1.00800           0
     12184 MEMB     85       DOPC     C33      CTL2    -0.180000       12.0110           0
     12185 MEMB     85       DOPC     H3X      HAL2     0.900000E-01   1.00800           0
     12186 MEMB     85       DOPC     H3Y      HAL2     0.900000E-01   1.00800           0
     12187 MEMB     85       DOPC     C34      CTL2    -0.180000       12.0110           0
     12188 MEMB     85       DOPC     H4X      HAL2     0.900000E-01   1.00800           0
     12189 MEMB     85       DOPC     H4Y      HAL2     0.900000E-01   1.00800           0
     12190 MEMB     85       DOPC     C35      CTL2    -0.180000       12.0110           0
     12191 MEMB     85       DOPC     H5X      HAL2     0.900000E-01   1.00800           0
     12192 MEMB     85       DOPC     H5Y      HAL2     0.900000E-01   1.00800           0
     12193 MEMB     85       DOPC     C36      CTL2    -0.180000       12.0110           0
     12194 MEMB     85       DOPC     H6X      HAL2     0.900000E-01   1.00800           0
     12195 MEMB     85       DOPC     H6Y      HAL2     0.900000E-01   1.00800           0
     12196 MEMB     85       DOPC     C37      CTL2    -0.180000       12.0110           0
     12197 MEMB     85       DOPC     H7X      HAL2     0.900000E-01   1.00800           0
     12198 MEMB     85       DOPC     H7Y      HAL2     0.900000E-01   1.00800           0
     12199 MEMB     85       DOPC     C38      CTL2    -0.180000       12.0110           0
     12200 MEMB     85       DOPC     H8X      HAL2     0.900000E-01   1.00800           0
     12201 MEMB     85       DOPC     H8Y      HAL2     0.900000E-01   1.00800           0
     12202 MEMB     85       DOPC     C39      CEL1    -0.150000       12.0110           0
     12203 MEMB     85       DOPC     H9X      HEL1     0.150000       1.00800           0
     12204 MEMB     85       DOPC     C310     CEL1    -0.150000       12.0110           0
     12205 MEMB     85       DOPC     H10X     HEL1     0.150000       1.00800           0
     12206 MEMB     85       DOPC     C311     CTL2    -0.180000       12.0110           0
     12207 MEMB     85       DOPC     H11X     HAL2     0.900000E-01   1.00800           0
     12208 MEMB     85       DOPC     H11Y     HAL2     0.900000E-01   1.00800           0
     12209 MEMB     85       DOPC     C312     CTL2    -0.180000       12.0110           0
     12210 MEMB     85       DOPC     H12X     HAL2     0.900000E-01   1.00800           0
     12211 MEMB     85       DOPC     H12Y     HAL2     0.900000E-01   1.00800           0
     12212 MEMB     85       DOPC     C313     CTL2    -0.180000       12.0110           0
     12213 MEMB     85       DOPC     H13X     HAL2     0.900000E-01   1.00800           0
     12214 MEMB     85       DOPC     H13Y     HAL2     0.900000E-01   1.00800           0
     12215 MEMB     85       DOPC     C314     CTL2    -0.180000       12.0110           0
     12216 MEMB     85       DOPC     H14X     HAL2     0.900000E-01   1.00800           0
     12217 MEMB     85       DOPC     H14Y     HAL2     0.900000E-01   1.00800           0
     12218 MEMB     85       DOPC     C315     CTL2    -0.180000       12.0110           0
     12219 MEMB     85       DOPC     H15X     HAL2     0.900000E-01   1.00800           0
     12220 MEMB     85       DOPC     H15Y     HAL2     0.900000E-01   1.00800           0
     12221 MEMB     85       DOPC     C316     CTL2    -0.180000       12.0110           0
     12222 MEMB     85       DOPC     H16X     HAL2     0.900000E-01   1.00800           0
     12223 MEMB     85       DOPC     H16Y     HAL2     0.900000E-01   1.00800           0
     12224 MEMB     85       DOPC     C317     CTL2    -0.180000       12.0110           0
     12225 MEMB     85       DOPC     H17X     HAL2     0.900000E-01   1.00800           0
     12226 MEMB     85       DOPC     H17Y     HAL2     0.900000E-01   1.00800           0
     12227 MEMB     85       DOPC     C318     CTL3    -0.270000       12.0110           0
     12228 MEMB     85       DOPC     H18X     HAL3     0.900000E-01   1.00800           0
     12229 MEMB     85       DOPC     H18Y     HAL3     0.900000E-01   1.00800           0
     12230 MEMB     85       DOPC     H18Z     HAL3     0.900000E-01   1.00800           0
     12231 MEMB     86       DOPC     N        NTL     -0.600000       14.0070           0
     12232 MEMB     86       DOPC     C12      CTL2    -0.100000       12.0110           0
     12233 MEMB     86       DOPC     H12A     HL       0.250000       1.00800           0
     12234 MEMB     86       DOPC     H12B     HL       0.250000       1.00800           0
     12235 MEMB     86       DOPC     C13      CTL5    -0.350000       12.0110           0
     12236 MEMB     86       DOPC     H13A     HL       0.250000       1.00800           0
     12237 MEMB     86       DOPC     H13B     HL       0.250000       1.00800           0
     12238 MEMB     86       DOPC     H13C     HL       0.250000       1.00800           0
     12239 MEMB     86       DOPC     C14      CTL5    -0.350000       12.0110           0
     12240 MEMB     86       DOPC     H14A     HL       0.250000       1.00800           0
     12241 MEMB     86       DOPC     H14B     HL       0.250000       1.00800           0
     12242 MEMB     86       DOPC     H14C     HL       0.250000       1.00800           0
     12243 MEMB     86       DOPC     C15      CTL5    -0.350000       12.0110           0
     12244 MEMB     86       DOPC     H15A     HL       0.250000       1.00800           0
     12245 MEMB     86       DOPC     H15B     HL       0.250000       1.00800           0
     12246 MEMB     86       DOPC     H15C     HL       0.250000       1.00800           0
     12247 MEMB     86       DOPC     C11      CTL2    -0.800000E-01   12.0110           0
     12248 MEMB     86       DOPC     H11A     HAL2     0.900000E-01   1.00800           0
     12249 MEMB     86       DOPC     H11B     HAL2     0.900000E-01   1.00800           0
     12250 MEMB     86       DOPC     P        PL        1.50000       30.9740           0
     12251 MEMB     86       DOPC     O13      O2L     -0.780000       15.9994           0
     12252 MEMB     86       DOPC     O14      O2L     -0.780000       15.9994           0
     12253 MEMB     86       DOPC     O12      OSLP    -0.570000       15.9994           0
     12254 MEMB     86       DOPC     O11      OSLP    -0.570000       15.9994           0
     12255 MEMB     86       DOPC     C1       CTL2    -0.800000E-01   12.0110           0
     12256 MEMB     86       DOPC     HA       HAL2     0.900000E-01   1.00800           0
     12257 MEMB     86       DOPC     HB       HAL2     0.900000E-01   1.00800           0
     12258 MEMB     86       DOPC     C2       CTL1     0.170000       12.0110           0
     12259 MEMB     86       DOPC     HS       HAL1     0.900000E-01   1.00800           0
     12260 MEMB     86       DOPC     O21      OSL     -0.490000       15.9994           0
     12261 MEMB     86       DOPC     C21      CL       0.900000       12.0110           0
     12262 MEMB     86       DOPC     O22      OBL     -0.630000       15.9994           0
     12263 MEMB     86       DOPC     C22      CTL2    -0.220000       12.0110           0
     12264 MEMB     86       DOPC     H2R      HAL2     0.900000E-01   1.00800           0
     12265 MEMB     86       DOPC     H2S      HAL2     0.900000E-01   1.00800           0
     12266 MEMB     86       DOPC     C3       CTL2     0.800000E-01   12.0110           0
     12267 MEMB     86       DOPC     HX       HAL2     0.900000E-01   1.00800           0
     12268 MEMB     86       DOPC     HY       HAL2     0.900000E-01   1.00800           0
     12269 MEMB     86       DOPC     O31      OSL     -0.490000       15.9994           0
     12270 MEMB     86       DOPC     C31      CL       0.900000       12.0110           0
     12271 MEMB     86       DOPC     O32      OBL     -0.630000       15.9994           0
     12272 MEMB     86       DOPC     C32      CTL2    -0.220000       12.0110           0
     12273 MEMB     86       DOPC     H2X      HAL2     0.900000E-01   1.00800           0
     12274 MEMB     86       DOPC     H2Y      HAL2     0.900000E-01   1.00800           0
     12275 MEMB     86       DOPC     C23      CTL2    -0.180000       12.0110           0
     12276 MEMB     86       DOPC     H3R      HAL2     0.900000E-01   1.00800           0
     12277 MEMB     86       DOPC     H3S      HAL2     0.900000E-01   1.00800           0
     12278 MEMB     86       DOPC     C24      CTL2    -0.180000       12.0110           0
     12279 MEMB     86       DOPC     H4R      HAL2     0.900000E-01   1.00800           0
     12280 MEMB     86       DOPC     H4S      HAL2     0.900000E-01   1.00800           0
     12281 MEMB     86       DOPC     C25      CTL2    -0.180000       12.0110           0
     12282 MEMB     86       DOPC     H5R      HAL2     0.900000E-01   1.00800           0
     12283 MEMB     86       DOPC     H5S      HAL2     0.900000E-01   1.00800           0
     12284 MEMB     86       DOPC     C26      CTL2    -0.180000       12.0110           0
     12285 MEMB     86       DOPC     H6R      HAL2     0.900000E-01   1.00800           0
     12286 MEMB     86       DOPC     H6S      HAL2     0.900000E-01   1.00800           0
     12287 MEMB     86       DOPC     C27      CTL2    -0.180000       12.0110           0
     12288 MEMB     86       DOPC     H7R      HAL2     0.900000E-01   1.00800           0
     12289 MEMB     86       DOPC     H7S      HAL2     0.900000E-01   1.00800           0
     12290 MEMB     86       DOPC     C28      CTL2    -0.180000       12.0110           0
     12291 MEMB     86       DOPC     H8R      HAL2     0.900000E-01   1.00800           0
     12292 MEMB     86       DOPC     H8S      HAL2     0.900000E-01   1.00800           0
     12293 MEMB     86       DOPC     C29      CEL1    -0.150000       12.0110           0
     12294 MEMB     86       DOPC     H9R      HEL1     0.150000       1.00800           0
     12295 MEMB     86       DOPC     C210     CEL1    -0.150000       12.0110           0
     12296 MEMB     86       DOPC     H10R     HEL1     0.150000       1.00800           0
     12297 MEMB     86       DOPC     C211     CTL2    -0.180000       12.0110           0
     12298 MEMB     86       DOPC     H11R     HAL2     0.900000E-01   1.00800           0
     12299 MEMB     86       DOPC     H11S     HAL2     0.900000E-01   1.00800           0
     12300 MEMB     86       DOPC     C212     CTL2    -0.180000       12.0110           0
     12301 MEMB     86       DOPC     H12R     HAL2     0.900000E-01   1.00800           0
     12302 MEMB     86       DOPC     H12S     HAL2     0.900000E-01   1.00800           0
     12303 MEMB     86       DOPC     C213     CTL2    -0.180000       12.0110           0
     12304 MEMB     86       DOPC     H13R     HAL2     0.900000E-01   1.00800           0
     12305 MEMB     86       DOPC     H13S     HAL2     0.900000E-01   1.00800           0
     12306 MEMB     86       DOPC     C214     CTL2    -0.180000       12.0110           0
     12307 MEMB     86       DOPC     H14R     HAL2     0.900000E-01   1.00800           0
     12308 MEMB     86       DOPC     H14S     HAL2     0.900000E-01   1.00800           0
     12309 MEMB     86       DOPC     C215     CTL2    -0.180000       12.0110           0
     12310 MEMB     86       DOPC     H15R     HAL2     0.900000E-01   1.00800           0
     12311 MEMB     86       DOPC     H15S     HAL2     0.900000E-01   1.00800           0
     12312 MEMB     86       DOPC     C216     CTL2    -0.180000       12.0110           0
     12313 MEMB     86       DOPC     H16R     HAL2     0.900000E-01   1.00800           0
     12314 MEMB     86       DOPC     H16S     HAL2     0.900000E-01   1.00800           0
     12315 MEMB     86       DOPC     C217     CTL2    -0.180000       12.0110           0
     12316 MEMB     86       DOPC     H17R     HAL2     0.900000E-01   1.00800           0
     12317 MEMB     86       DOPC     H17S     HAL2     0.900000E-01   1.00800           0
     12318 MEMB     86       DOPC     C218     CTL3    -0.270000       12.0110           0
     12319 MEMB     86       DOPC     H18R     HAL3     0.900000E-01   1.00800           0
     12320 MEMB     86       DOPC     H18S     HAL3     0.900000E-01   1.00800           0
     12321 MEMB     86       DOPC     H18T     HAL3     0.900000E-01   1.00800           0
     12322 MEMB     86       DOPC     C33      CTL2    -0.180000       12.0110           0
     12323 MEMB     86       DOPC     H3X      HAL2     0.900000E-01   1.00800           0
     12324 MEMB     86       DOPC     H3Y      HAL2     0.900000E-01   1.00800           0
     12325 MEMB     86       DOPC     C34      CTL2    -0.180000       12.0110           0
     12326 MEMB     86       DOPC     H4X      HAL2     0.900000E-01   1.00800           0
     12327 MEMB     86       DOPC     H4Y      HAL2     0.900000E-01   1.00800           0
     12328 MEMB     86       DOPC     C35      CTL2    -0.180000       12.0110           0
     12329 MEMB     86       DOPC     H5X      HAL2     0.900000E-01   1.00800           0
     12330 MEMB     86       DOPC     H5Y      HAL2     0.900000E-01   1.00800           0
     12331 MEMB     86       DOPC     C36      CTL2    -0.180000       12.0110           0
     12332 MEMB     86       DOPC     H6X      HAL2     0.900000E-01   1.00800           0
     12333 MEMB     86       DOPC     H6Y      HAL2     0.900000E-01   1.00800           0
     12334 MEMB     86       DOPC     C37      CTL2    -0.180000       12.0110           0
     12335 MEMB     86       DOPC     H7X      HAL2     0.900000E-01   1.00800           0
     12336 MEMB     86       DOPC     H7Y      HAL2     0.900000E-01   1.00800           0
     12337 MEMB     86       DOPC     C38      CTL2    -0.180000       12.0110           0
     12338 MEMB     86       DOPC     H8X      HAL2     0.900000E-01   1.00800           0
     12339 MEMB     86       DOPC     H8Y      HAL2     0.900000E-01   1.00800           0
     12340 MEMB     86       DOPC     C39      CEL1    -0.150000       12.0110           0
     12341 MEMB     86       DOPC     H9X      HEL1     0.150000       1.00800           0
     12342 MEMB     86       DOPC     C310     CEL1    -0.150000       12.0110           0
     12343 MEMB     86       DOPC     H10X     HEL1     0.150000       1.00800           0
     12344 MEMB     86       DOPC     C311     CTL2    -0.180000       12.0110           0
     12345 MEMB     86       DOPC     H11X     HAL2     0.900000E-01   1.00800           0
     12346 MEMB     86       DOPC     H11Y     HAL2     0.900000E-01   1.00800           0
     12347 MEMB     86       DOPC     C312     CTL2    -0.180000       12.0110           0
     12348 MEMB     86       DOPC     H12X     HAL2     0.900000E-01   1.00800           0
     12349 MEMB     86       DOPC     H12Y     HAL2     0.900000E-01   1.00800           0
     12350 MEMB     86       DOPC     C313     CTL2    -0.180000       12.0110           0
     12351 MEMB     86       DOPC     H13X     HAL2     0.900000E-01   1.00800           0
     12352 MEMB     86       DOPC     H13Y     HAL2     0.900000E-01   1.00800           0
     12353 MEMB     86       DOPC     C314     CTL2    -0.180000       12.0110           0
     12354 MEMB     86       DOPC     H14X     HAL2     0.900000E-01   1.00800           0
     12355 MEMB     86       DOPC     H14Y     HAL2     0.900000E-01   1.00800           0
     12356 MEMB     86       DOPC     C315     CTL2    -0.180000       12.0110           0
     12357 MEMB     86       DOPC     H15X     HAL2     0.900000E-01   1.00800           0
     12358 MEMB     86       DOPC     H15Y     HAL2     0.900000E-01   1.00800           0
     12359 MEMB     86       DOPC     C316     CTL2    -0.180000       12.0110           0
     12360 MEMB     86       DOPC     H16X     HAL2     0.900000E-01   1.00800           0
     12361 MEMB     86       DOPC     H16Y     HAL2     0.900000E-01   1.00800           0
     12362 MEMB     86       DOPC     C317     CTL2    -0.180000       12.0110           0
     12363 MEMB     86       DOPC     H17X     HAL2     0.900000E-01   1.00800           0
     12364 MEMB     86       DOPC     H17Y     HAL2     0.900000E-01   1.00800           0
     12365 MEMB     86       DOPC     C318     CTL3    -0.270000       12.0110           0
     12366 MEMB     86       DOPC     H18X     HAL3     0.900000E-01   1.00800           0
     12367 MEMB     86       DOPC     H18Y     HAL3     0.900000E-01   1.00800           0
     12368 MEMB     86       DOPC     H18Z     HAL3     0.900000E-01   1.00800           0
     12369 MEMB     87       DOPC     N        NTL     -0.600000       14.0070           0
     12370 MEMB     87       DOPC     C12      CTL2    -0.100000       12.0110           0
     12371 MEMB     87       DOPC     H12A     HL       0.250000       1.00800           0
     12372 MEMB     87       DOPC     H12B     HL       0.250000       1.00800           0
     12373 MEMB     87       DOPC     C13      CTL5    -0.350000       12.0110           0
     12374 MEMB     87       DOPC     H13A     HL       0.250000       1.00800           0
     12375 MEMB     87       DOPC     H13B     HL       0.250000       1.00800           0
     12376 MEMB     87       DOPC     H13C     HL       0.250000       1.00800           0
     12377 MEMB     87       DOPC     C14      CTL5    -0.350000       12.0110           0
     12378 MEMB     87       DOPC     H14A     HL       0.250000       1.00800           0
     12379 MEMB     87       DOPC     H14B     HL       0.250000       1.00800           0
     12380 MEMB     87       DOPC     H14C     HL       0.250000       1.00800           0
     12381 MEMB     87       DOPC     C15      CTL5    -0.350000       12.0110           0
     12382 MEMB     87       DOPC     H15A     HL       0.250000       1.00800           0
     12383 MEMB     87       DOPC     H15B     HL       0.250000       1.00800           0
     12384 MEMB     87       DOPC     H15C     HL       0.250000       1.00800           0
     12385 MEMB     87       DOPC     C11      CTL2    -0.800000E-01   12.0110           0
     12386 MEMB     87       DOPC     H11A     HAL2     0.900000E-01   1.00800           0
     12387 MEMB     87       DOPC     H11B     HAL2     0.900000E-01   1.00800           0
     12388 MEMB     87       DOPC     P        PL        1.50000       30.9740           0
     12389 MEMB     87       DOPC     O13      O2L     -0.780000       15.9994           0
     12390 MEMB     87       DOPC     O14      O2L     -0.780000       15.9994           0
     12391 MEMB     87       DOPC     O12      OSLP    -0.570000       15.9994           0
     12392 MEMB     87       DOPC     O11      OSLP    -0.570000       15.9994           0
     12393 MEMB     87       DOPC     C1       CTL2    -0.800000E-01   12.0110           0
     12394 MEMB     87       DOPC     HA       HAL2     0.900000E-01   1.00800           0
     12395 MEMB     87       DOPC     HB       HAL2     0.900000E-01   1.00800           0
     12396 MEMB     87       DOPC     C2       CTL1     0.170000       12.0110           0
     12397 MEMB     87       DOPC     HS       HAL1     0.900000E-01   1.00800           0
     12398 MEMB     87       DOPC     O21      OSL     -0.490000       15.9994           0
     12399 MEMB     87       DOPC     C21      CL       0.900000       12.0110           0
     12400 MEMB     87       DOPC     O22      OBL     -0.630000       15.9994           0
     12401 MEMB     87       DOPC     C22      CTL2    -0.220000       12.0110           0
     12402 MEMB     87       DOPC     H2R      HAL2     0.900000E-01   1.00800           0
     12403 MEMB     87       DOPC     H2S      HAL2     0.900000E-01   1.00800           0
     12404 MEMB     87       DOPC     C3       CTL2     0.800000E-01   12.0110           0
     12405 MEMB     87       DOPC     HX       HAL2     0.900000E-01   1.00800           0
     12406 MEMB     87       DOPC     HY       HAL2     0.900000E-01   1.00800           0
     12407 MEMB     87       DOPC     O31      OSL     -0.490000       15.9994           0
     12408 MEMB     87       DOPC     C31      CL       0.900000       12.0110           0
     12409 MEMB     87       DOPC     O32      OBL     -0.630000       15.9994           0
     12410 MEMB     87       DOPC     C32      CTL2    -0.220000       12.0110           0
     12411 MEMB     87       DOPC     H2X      HAL2     0.900000E-01   1.00800           0
     12412 MEMB     87       DOPC     H2Y      HAL2     0.900000E-01   1.00800           0
     12413 MEMB     87       DOPC     C23      CTL2    -0.180000       12.0110           0
     12414 MEMB     87       DOPC     H3R      HAL2     0.900000E-01   1.00800           0
     12415 MEMB     87       DOPC     H3S      HAL2     0.900000E-01   1.00800           0
     12416 MEMB     87       DOPC     C24      CTL2    -0.180000       12.0110           0
     12417 MEMB     87       DOPC     H4R      HAL2     0.900000E-01   1.00800           0
     12418 MEMB     87       DOPC     H4S      HAL2     0.900000E-01   1.00800           0
     12419 MEMB     87       DOPC     C25      CTL2    -0.180000       12.0110           0
     12420 MEMB     87       DOPC     H5R      HAL2     0.900000E-01   1.00800           0
     12421 MEMB     87       DOPC     H5S      HAL2     0.900000E-01   1.00800           0
     12422 MEMB     87       DOPC     C26      CTL2    -0.180000       12.0110           0
     12423 MEMB     87       DOPC     H6R      HAL2     0.900000E-01   1.00800           0
     12424 MEMB     87       DOPC     H6S      HAL2     0.900000E-01   1.00800           0
     12425 MEMB     87       DOPC     C27      CTL2    -0.180000       12.0110           0
     12426 MEMB     87       DOPC     H7R      HAL2     0.900000E-01   1.00800           0
     12427 MEMB     87       DOPC     H7S      HAL2     0.900000E-01   1.00800           0
     12428 MEMB     87       DOPC     C28      CTL2    -0.180000       12.0110           0
     12429 MEMB     87       DOPC     H8R      HAL2     0.900000E-01   1.00800           0
     12430 MEMB     87       DOPC     H8S      HAL2     0.900000E-01   1.00800           0
     12431 MEMB     87       DOPC     C29      CEL1    -0.150000       12.0110           0
     12432 MEMB     87       DOPC     H9R      HEL1     0.150000       1.00800           0
     12433 MEMB     87       DOPC     C210     CEL1    -0.150000       12.0110           0
     12434 MEMB     87       DOPC     H10R     HEL1     0.150000       1.00800           0
     12435 MEMB     87       DOPC     C211     CTL2    -0.180000       12.0110           0
     12436 MEMB     87       DOPC     H11R     HAL2     0.900000E-01   1.00800           0
     12437 MEMB     87       DOPC     H11S     HAL2     0.900000E-01   1.00800           0
     12438 MEMB     87       DOPC     C212     CTL2    -0.180000       12.0110           0
     12439 MEMB     87       DOPC     H12R     HAL2     0.900000E-01   1.00800           0
     12440 MEMB     87       DOPC     H12S     HAL2     0.900000E-01   1.00800           0
     12441 MEMB     87       DOPC     C213     CTL2    -0.180000       12.0110           0
     12442 MEMB     87       DOPC     H13R     HAL2     0.900000E-01   1.00800           0
     12443 MEMB     87       DOPC     H13S     HAL2     0.900000E-01   1.00800           0
     12444 MEMB     87       DOPC     C214     CTL2    -0.180000       12.0110           0
     12445 MEMB     87       DOPC     H14R     HAL2     0.900000E-01   1.00800           0
     12446 MEMB     87       DOPC     H14S     HAL2     0.900000E-01   1.00800           0
     12447 MEMB     87       DOPC     C215     CTL2    -0.180000       12.0110           0
     12448 MEMB     87       DOPC     H15R     HAL2     0.900000E-01   1.00800           0
     12449 MEMB     87       DOPC     H15S     HAL2     0.900000E-01   1.00800           0
     12450 MEMB     87       DOPC     C216     CTL2    -0.180000       12.0110           0
     12451 MEMB     87       DOPC     H16R     HAL2     0.900000E-01   1.00800           0
     12452 MEMB     87       DOPC     H16S     HAL2     0.900000E-01   1.00800           0
     12453 MEMB     87       DOPC     C217     CTL2    -0.180000       12.0110           0
     12454 MEMB     87       DOPC     H17R     HAL2     0.900000E-01   1.00800           0
     12455 MEMB     87       DOPC     H17S     HAL2     0.900000E-01   1.00800           0
     12456 MEMB     87       DOPC     C218     CTL3    -0.270000       12.0110           0
     12457 MEMB     87       DOPC     H18R     HAL3     0.900000E-01   1.00800           0
     12458 MEMB     87       DOPC     H18S     HAL3     0.900000E-01   1.00800           0
     12459 MEMB     87       DOPC     H18T     HAL3     0.900000E-01   1.00800           0
     12460 MEMB     87       DOPC     C33      CTL2    -0.180000       12.0110           0
     12461 MEMB     87       DOPC     H3X      HAL2     0.900000E-01   1.00800           0
     12462 MEMB     87       DOPC     H3Y      HAL2     0.900000E-01   1.00800           0
     12463 MEMB     87       DOPC     C34      CTL2    -0.180000       12.0110           0
     12464 MEMB     87       DOPC     H4X      HAL2     0.900000E-01   1.00800           0
     12465 MEMB     87       DOPC     H4Y      HAL2     0.900000E-01   1.00800           0
     12466 MEMB     87       DOPC     C35      CTL2    -0.180000       12.0110           0
     12467 MEMB     87       DOPC     H5X      HAL2     0.900000E-01   1.00800           0
     12468 MEMB     87       DOPC     H5Y      HAL2     0.900000E-01   1.00800           0
     12469 MEMB     87       DOPC     C36      CTL2    -0.180000       12.0110           0
     12470 MEMB     87       DOPC     H6X      HAL2     0.900000E-01   1.00800           0
     12471 MEMB     87       DOPC     H6Y      HAL2     0.900000E-01   1.00800           0
     12472 MEMB     87       DOPC     C37      CTL2    -0.180000       12.0110           0
     12473 MEMB     87       DOPC     H7X      HAL2     0.900000E-01   1.00800           0
     12474 MEMB     87       DOPC     H7Y      HAL2     0.900000E-01   1.00800           0
     12475 MEMB     87       DOPC     C38      CTL2    -0.180000       12.0110           0
     12476 MEMB     87       DOPC     H8X      HAL2     0.900000E-01   1.00800           0
     12477 MEMB     87       DOPC     H8Y      HAL2     0.900000E-01   1.00800           0
     12478 MEMB     87       DOPC     C39      CEL1    -0.150000       12.0110           0
     12479 MEMB     87       DOPC     H9X      HEL1     0.150000       1.00800           0
     12480 MEMB     87       DOPC     C310     CEL1    -0.150000       12.0110           0
     12481 MEMB     87       DOPC     H10X     HEL1     0.150000       1.00800           0
     12482 MEMB     87       DOPC     C311     CTL2    -0.180000       12.0110           0
     12483 MEMB     87       DOPC     H11X     HAL2     0.900000E-01   1.00800           0
     12484 MEMB     87       DOPC     H11Y     HAL2     0.900000E-01   1.00800           0
     12485 MEMB     87       DOPC     C312     CTL2    -0.180000       12.0110           0
     12486 MEMB     87       DOPC     H12X     HAL2     0.900000E-01   1.00800           0
     12487 MEMB     87       DOPC     H12Y     HAL2     0.900000E-01   1.00800           0
     12488 MEMB     87       DOPC     C313     CTL2    -0.180000       12.0110           0
     12489 MEMB     87       DOPC     H13X     HAL2     0.900000E-01   1.00800           0
     12490 MEMB     87       DOPC     H13Y     HAL2     0.900000E-01   1.00800           0
     12491 MEMB     87       DOPC     C314     CTL2    -0.180000       12.0110           0
     12492 MEMB     87       DOPC     H14X     HAL2     0.900000E-01   1.00800           0
     12493 MEMB     87       DOPC     H14Y     HAL2     0.900000E-01   1.00800           0
     12494 MEMB     87       DOPC     C315     CTL2    -0.180000       12.0110           0
     12495 MEMB     87       DOPC     H15X     HAL2     0.900000E-01   1.00800           0
     12496 MEMB     87       DOPC     H15Y     HAL2     0.900000E-01   1.00800           0
     12497 MEMB     87       DOPC     C316     CTL2    -0.180000       12.0110           0
     12498 MEMB     87       DOPC     H16X     HAL2     0.900000E-01   1.00800           0
     12499 MEMB     87       DOPC     H16Y     HAL2     0.900000E-01   1.00800           0
     12500 MEMB     87       DOPC     C317     CTL2    -0.180000       12.0110           0
     12501 MEMB     87       DOPC     H17X     HAL2     0.900000E-01   1.00800           0
     12502 MEMB     87       DOPC     H17Y     HAL2     0.900000E-01   1.00800           0
     12503 MEMB     87       DOPC     C318     CTL3    -0.270000       12.0110           0
     12504 MEMB     87       DOPC     H18X     HAL3     0.900000E-01   1.00800           0
     12505 MEMB     87       DOPC     H18Y     HAL3     0.900000E-01   1.00800           0
     12506 MEMB     87       DOPC     H18Z     HAL3     0.900000E-01   1.00800           0
     12507 MEMB     88       DOPC     N        NTL     -0.600000       14.0070           0
     12508 MEMB     88       DOPC     C12      CTL2    -0.100000       12.0110           0
     12509 MEMB     88       DOPC     H12A     HL       0.250000       1.00800           0
     12510 MEMB     88       DOPC     H12B     HL       0.250000       1.00800           0
     12511 MEMB     88       DOPC     C13      CTL5    -0.350000       12.0110           0
     12512 MEMB     88       DOPC     H13A     HL       0.250000       1.00800           0
     12513 MEMB     88       DOPC     H13B     HL       0.250000       1.00800           0
     12514 MEMB     88       DOPC     H13C     HL       0.250000       1.00800           0
     12515 MEMB     88       DOPC     C14      CTL5    -0.350000       12.0110           0
     12516 MEMB     88       DOPC     H14A     HL       0.250000       1.00800           0
     12517 MEMB     88       DOPC     H14B     HL       0.250000       1.00800           0
     12518 MEMB     88       DOPC     H14C     HL       0.250000       1.00800           0
     12519 MEMB     88       DOPC     C15      CTL5    -0.350000       12.0110           0
     12520 MEMB     88       DOPC     H15A     HL       0.250000       1.00800           0
     12521 MEMB     88       DOPC     H15B     HL       0.250000       1.00800           0
     12522 MEMB     88       DOPC     H15C     HL       0.250000       1.00800           0
     12523 MEMB     88       DOPC     C11      CTL2    -0.800000E-01   12.0110           0
     12524 MEMB     88       DOPC     H11A     HAL2     0.900000E-01   1.00800           0
     12525 MEMB     88       DOPC     H11B     HAL2     0.900000E-01   1.00800           0
     12526 MEMB     88       DOPC     P        PL        1.50000       30.9740           0
     12527 MEMB     88       DOPC     O13      O2L     -0.780000       15.9994           0
     12528 MEMB     88       DOPC     O14      O2L     -0.780000       15.9994           0
     12529 MEMB     88       DOPC     O12      OSLP    -0.570000       15.9994           0
     12530 MEMB     88       DOPC     O11      OSLP    -0.570000       15.9994           0
     12531 MEMB     88       DOPC     C1       CTL2    -0.800000E-01   12.0110           0
     12532 MEMB     88       DOPC     HA       HAL2     0.900000E-01   1.00800           0
     12533 MEMB     88       DOPC     HB       HAL2     0.900000E-01   1.00800           0
     12534 MEMB     88       DOPC     C2       CTL1     0.170000       12.0110           0
     12535 MEMB     88       DOPC     HS       HAL1     0.900000E-01   1.00800           0
     12536 MEMB     88       DOPC     O21      OSL     -0.490000       15.9994           0
     12537 MEMB     88       DOPC     C21      CL       0.900000       12.0110           0
     12538 MEMB     88       DOPC     O22      OBL     -0.630000       15.9994           0
     12539 MEMB     88       DOPC     C22      CTL2    -0.220000       12.0110           0
     12540 MEMB     88       DOPC     H2R      HAL2     0.900000E-01   1.00800           0
     12541 MEMB     88       DOPC     H2S      HAL2     0.900000E-01   1.00800           0
     12542 MEMB     88       DOPC     C3       CTL2     0.800000E-01   12.0110           0
     12543 MEMB     88       DOPC     HX       HAL2     0.900000E-01   1.00800           0
     12544 MEMB     88       DOPC     HY       HAL2     0.900000E-01   1.00800           0
     12545 MEMB     88       DOPC     O31      OSL     -0.490000       15.9994           0
     12546 MEMB     88       DOPC     C31      CL       0.900000       12.0110           0
     12547 MEMB     88       DOPC     O32      OBL     -0.630000       15.9994           0
     12548 MEMB     88       DOPC     C32      CTL2    -0.220000       12.0110           0
     12549 MEMB     88       DOPC     H2X      HAL2     0.900000E-01   1.00800           0
     12550 MEMB     88       DOPC     H2Y      HAL2     0.900000E-01   1.00800           0
     12551 MEMB     88       DOPC     C23      CTL2    -0.180000       12.0110           0
     12552 MEMB     88       DOPC     H3R      HAL2     0.900000E-01   1.00800           0
     12553 MEMB     88       DOPC     H3S      HAL2     0.900000E-01   1.00800           0
     12554 MEMB     88       DOPC     C24      CTL2    -0.180000       12.0110           0
     12555 MEMB     88       DOPC     H4R      HAL2     0.900000E-01   1.00800           0
     12556 MEMB     88       DOPC     H4S      HAL2     0.900000E-01   1.00800           0
     12557 MEMB     88       DOPC     C25      CTL2    -0.180000       12.0110           0
     12558 MEMB     88       DOPC     H5R      HAL2     0.900000E-01   1.00800           0
     12559 MEMB     88       DOPC     H5S      HAL2     0.900000E-01   1.00800           0
     12560 MEMB     88       DOPC     C26      CTL2    -0.180000       12.0110           0
     12561 MEMB     88       DOPC     H6R      HAL2     0.900000E-01   1.00800           0
     12562 MEMB     88       DOPC     H6S      HAL2     0.900000E-01   1.00800           0
     12563 MEMB     88       DOPC     C27      CTL2    -0.180000       12.0110           0
     12564 MEMB     88       DOPC     H7R      HAL2     0.900000E-01   1.00800           0
     12565 MEMB     88       DOPC     H7S      HAL2     0.900000E-01   1.00800           0
     12566 MEMB     88       DOPC     C28      CTL2    -0.180000       12.0110           0
     12567 MEMB     88       DOPC     H8R      HAL2     0.900000E-01   1.00800           0
     12568 MEMB     88       DOPC     H8S      HAL2     0.900000E-01   1.00800           0
     12569 MEMB     88       DOPC     C29      CEL1    -0.150000       12.0110           0
     12570 MEMB     88       DOPC     H9R      HEL1     0.150000       1.00800           0
     12571 MEMB     88       DOPC     C210     CEL1    -0.150000       12.0110           0
     12572 MEMB     88       DOPC     H10R     HEL1     0.150000       1.00800           0
     12573 MEMB     88       DOPC     C211     CTL2    -0.180000       12.0110           0
     12574 MEMB     88       DOPC     H11R     HAL2     0.900000E-01   1.00800           0
     12575 MEMB     88       DOPC     H11S     HAL2     0.900000E-01   1.00800           0
     12576 MEMB     88       DOPC     C212     CTL2    -0.180000       12.0110           0
     12577 MEMB     88       DOPC     H12R     HAL2     0.900000E-01   1.00800           0
     12578 MEMB     88       DOPC     H12S     HAL2     0.900000E-01   1.00800           0
     12579 MEMB     88       DOPC     C213     CTL2    -0.180000       12.0110           0
     12580 MEMB     88       DOPC     H13R     HAL2     0.900000E-01   1.00800           0
     12581 MEMB     88       DOPC     H13S     HAL2     0.900000E-01   1.00800           0
     12582 MEMB     88       DOPC     C214     CTL2    -0.180000       12.0110           0
     12583 MEMB     88       DOPC     H14R     HAL2     0.900000E-01   1.00800           0
     12584 MEMB     88       DOPC     H14S     HAL2     0.900000E-01   1.00800           0
     12585 MEMB     88       DOPC     C215     CTL2    -0.180000       12.0110           0
     12586 MEMB     88       DOPC     H15R     HAL2     0.900000E-01   1.00800           0
     12587 MEMB     88       DOPC     H15S     HAL2     0.900000E-01   1.00800           0
     12588 MEMB     88       DOPC     C216     CTL2    -0.180000       12.0110           0
     12589 MEMB     88       DOPC     H16R     HAL2     0.900000E-01   1.00800           0
     12590 MEMB     88       DOPC     H16S     HAL2     0.900000E-01   1.00800           0
     12591 MEMB     88       DOPC     C217     CTL2    -0.180000       12.0110           0
     12592 MEMB     88       DOPC     H17R     HAL2     0.900000E-01   1.00800           0
     12593 MEMB     88       DOPC     H17S     HAL2     0.900000E-01   1.00800           0
     12594 MEMB     88       DOPC     C218     CTL3    -0.270000       12.0110           0
     12595 MEMB     88       DOPC     H18R     HAL3     0.900000E-01   1.00800           0
     12596 MEMB     88       DOPC     H18S     HAL3     0.900000E-01   1.00800           0
     12597 MEMB     88       DOPC     H18T     HAL3     0.900000E-01   1.00800           0
     12598 MEMB     88       DOPC     C33      CTL2    -0.180000       12.0110           0
     12599 MEMB     88       DOPC     H3X      HAL2     0.900000E-01   1.00800           0
     12600 MEMB     88       DOPC     H3Y      HAL2     0.900000E-01   1.00800           0
     12601 MEMB     88       DOPC     C34      CTL2    -0.180000       12.0110           0
     12602 MEMB     88       DOPC     H4X      HAL2     0.900000E-01   1.00800           0
     12603 MEMB     88       DOPC     H4Y      HAL2     0.900000E-01   1.00800           0
     12604 MEMB     88       DOPC     C35      CTL2    -0.180000       12.0110           0
     12605 MEMB     88       DOPC     H5X      HAL2     0.900000E-01   1.00800           0
     12606 MEMB     88       DOPC     H5Y      HAL2     0.900000E-01   1.00800           0
     12607 MEMB     88       DOPC     C36      CTL2    -0.180000       12.0110           0
     12608 MEMB     88       DOPC     H6X      HAL2     0.900000E-01   1.00800           0
     12609 MEMB     88       DOPC     H6Y      HAL2     0.900000E-01   1.00800           0
     12610 MEMB     88       DOPC     C37      CTL2    -0.180000       12.0110           0
     12611 MEMB     88       DOPC     H7X      HAL2     0.900000E-01   1.00800           0
     12612 MEMB     88       DOPC     H7Y      HAL2     0.900000E-01   1.00800           0
     12613 MEMB     88       DOPC     C38      CTL2    -0.180000       12.0110           0
     12614 MEMB     88       DOPC     H8X      HAL2     0.900000E-01   1.00800           0
     12615 MEMB     88       DOPC     H8Y      HAL2     0.900000E-01   1.00800           0
     12616 MEMB     88       DOPC     C39      CEL1    -0.150000       12.0110           0
     12617 MEMB     88       DOPC     H9X      HEL1     0.150000       1.00800           0
     12618 MEMB     88       DOPC     C310     CEL1    -0.150000       12.0110           0
     12619 MEMB     88       DOPC     H10X     HEL1     0.150000       1.00800           0
     12620 MEMB     88       DOPC     C311     CTL2    -0.180000       12.0110           0
     12621 MEMB     88       DOPC     H11X     HAL2     0.900000E-01   1.00800           0
     12622 MEMB     88       DOPC     H11Y     HAL2     0.900000E-01   1.00800           0
     12623 MEMB     88       DOPC     C312     CTL2    -0.180000       12.0110           0
     12624 MEMB     88       DOPC     H12X     HAL2     0.900000E-01   1.00800           0
     12625 MEMB     88       DOPC     H12Y     HAL2     0.900000E-01   1.00800           0
     12626 MEMB     88       DOPC     C313     CTL2    -0.180000       12.0110           0
     12627 MEMB     88       DOPC     H13X     HAL2     0.900000E-01   1.00800           0
     12628 MEMB     88       DOPC     H13Y     HAL2     0.900000E-01   1.00800           0
     12629 MEMB     88       DOPC     C314     CTL2    -0.180000       12.0110           0
     12630 MEMB     88       DOPC     H14X     HAL2     0.900000E-01   1.00800           0
     12631 MEMB     88       DOPC     H14Y     HAL2     0.900000E-01   1.00800           0
     12632 MEMB     88       DOPC     C315     CTL2    -0.180000       12.0110           0
     12633 MEMB     88       DOPC     H15X     HAL2     0.900000E-01   1.00800           0
     12634 MEMB     88       DOPC     H15Y     HAL2     0.900000E-01   1.00800           0
     12635 MEMB     88       DOPC     C316     CTL2    -0.180000       12.0110           0
     12636 MEMB     88       DOPC     H16X     HAL2     0.900000E-01   1.00800           0
     12637 MEMB     88       DOPC     H16Y     HAL2     0.900000E-01   1.00800           0
     12638 MEMB     88       DOPC     C317     CTL2    -0.180000       12.0110           0
     12639 MEMB     88       DOPC     H17X     HAL2     0.900000E-01   1.00800           0
     12640 MEMB     88       DOPC     H17Y     HAL2     0.900000E-01   1.00800           0
     12641 MEMB     88       DOPC     C318     CTL3    -0.270000       12.0110           0
     12642 MEMB     88       DOPC     H18X     HAL3     0.900000E-01   1.00800           0
     12643 MEMB     88       DOPC     H18Y     HAL3     0.900000E-01   1.00800           0
     12644 MEMB     88       DOPC     H18Z     HAL3     0.900000E-01   1.00800           0
     12645 MEMB     89       DOPC     N        NTL     -0.600000       14.0070           0
     12646 MEMB     89       DOPC     C12      CTL2    -0.100000       12.0110           0
     12647 MEMB     89       DOPC     H12A     HL       0.250000       1.00800           0
     12648 MEMB     89       DOPC     H12B     HL       0.250000       1.00800           0
     12649 MEMB     89       DOPC     C13      CTL5    -0.350000       12.0110           0
     12650 MEMB     89       DOPC     H13A     HL       0.250000       1.00800           0
     12651 MEMB     89       DOPC     H13B     HL       0.250000       1.00800           0
     12652 MEMB     89       DOPC     H13C     HL       0.250000       1.00800           0
     12653 MEMB     89       DOPC     C14      CTL5    -0.350000       12.0110           0
     12654 MEMB     89       DOPC     H14A     HL       0.250000       1.00800           0
     12655 MEMB     89       DOPC     H14B     HL       0.250000       1.00800           0
     12656 MEMB     89       DOPC     H14C     HL       0.250000       1.00800           0
     12657 MEMB     89       DOPC     C15      CTL5    -0.350000       12.0110           0
     12658 MEMB     89       DOPC     H15A     HL       0.250000       1.00800           0
     12659 MEMB     89       DOPC     H15B     HL       0.250000       1.00800           0
     12660 MEMB     89       DOPC     H15C     HL       0.250000       1.00800           0
     12661 MEMB     89       DOPC     C11      CTL2    -0.800000E-01   12.0110           0
     12662 MEMB     89       DOPC     H11A     HAL2     0.900000E-01   1.00800           0
     12663 MEMB     89       DOPC     H11B     HAL2     0.900000E-01   1.00800           0
     12664 MEMB     89       DOPC     P        PL        1.50000       30.9740           0
     12665 MEMB     89       DOPC     O13      O2L     -0.780000       15.9994           0
     12666 MEMB     89       DOPC     O14      O2L     -0.780000       15.9994           0
     12667 MEMB     89       DOPC     O12      OSLP    -0.570000       15.9994           0
     12668 MEMB     89       DOPC     O11      OSLP    -0.570000       15.9994           0
     12669 MEMB     89       DOPC     C1       CTL2    -0.800000E-01   12.0110           0
     12670 MEMB     89       DOPC     HA       HAL2     0.900000E-01   1.00800           0
     12671 MEMB     89       DOPC     HB       HAL2     0.900000E-01   1.00800           0
     12672 MEMB     89       DOPC     C2       CTL1     0.170000       12.0110           0
     12673 MEMB     89       DOPC     HS       HAL1     0.900000E-01   1.00800           0
     12674 MEMB     89       DOPC     O21      OSL     -0.490000       15.9994           0
     12675 MEMB     89       DOPC     C21      CL       0.900000       12.0110           0
     12676 MEMB     89       DOPC     O22      OBL     -0.630000       15.9994           0
     12677 MEMB     89       DOPC     C22      CTL2    -0.220000       12.0110           0
     12678 MEMB     89       DOPC     H2R      HAL2     0.900000E-01   1.00800           0
     12679 MEMB     89       DOPC     H2S      HAL2     0.900000E-01   1.00800           0
     12680 MEMB     89       DOPC     C3       CTL2     0.800000E-01   12.0110           0
     12681 MEMB     89       DOPC     HX       HAL2     0.900000E-01   1.00800           0
     12682 MEMB     89       DOPC     HY       HAL2     0.900000E-01   1.00800           0
     12683 MEMB     89       DOPC     O31      OSL     -0.490000       15.9994           0
     12684 MEMB     89       DOPC     C31      CL       0.900000       12.0110           0
     12685 MEMB     89       DOPC     O32      OBL     -0.630000       15.9994           0
     12686 MEMB     89       DOPC     C32      CTL2    -0.220000       12.0110           0
     12687 MEMB     89       DOPC     H2X      HAL2     0.900000E-01   1.00800           0
     12688 MEMB     89       DOPC     H2Y      HAL2     0.900000E-01   1.00800           0
     12689 MEMB     89       DOPC     C23      CTL2    -0.180000       12.0110           0
     12690 MEMB     89       DOPC     H3R      HAL2     0.900000E-01   1.00800           0
     12691 MEMB     89       DOPC     H3S      HAL2     0.900000E-01   1.00800           0
     12692 MEMB     89       DOPC     C24      CTL2    -0.180000       12.0110           0
     12693 MEMB     89       DOPC     H4R      HAL2     0.900000E-01   1.00800           0
     12694 MEMB     89       DOPC     H4S      HAL2     0.900000E-01   1.00800           0
     12695 MEMB     89       DOPC     C25      CTL2    -0.180000       12.0110           0
     12696 MEMB     89       DOPC     H5R      HAL2     0.900000E-01   1.00800           0
     12697 MEMB     89       DOPC     H5S      HAL2     0.900000E-01   1.00800           0
     12698 MEMB     89       DOPC     C26      CTL2    -0.180000       12.0110           0
     12699 MEMB     89       DOPC     H6R      HAL2     0.900000E-01   1.00800           0
     12700 MEMB     89       DOPC     H6S      HAL2     0.900000E-01   1.00800           0
     12701 MEMB     89       DOPC     C27      CTL2    -0.180000       12.0110           0
     12702 MEMB     89       DOPC     H7R      HAL2     0.900000E-01   1.00800           0
     12703 MEMB     89       DOPC     H7S      HAL2     0.900000E-01   1.00800           0
     12704 MEMB     89       DOPC     C28      CTL2    -0.180000       12.0110           0
     12705 MEMB     89       DOPC     H8R      HAL2     0.900000E-01   1.00800           0
     12706 MEMB     89       DOPC     H8S      HAL2     0.900000E-01   1.00800           0
     12707 MEMB     89       DOPC     C29      CEL1    -0.150000       12.0110           0
     12708 MEMB     89       DOPC     H9R      HEL1     0.150000       1.00800           0
     12709 MEMB     89       DOPC     C210     CEL1    -0.150000       12.0110           0
     12710 MEMB     89       DOPC     H10R     HEL1     0.150000       1.00800           0
     12711 MEMB     89       DOPC     C211     CTL2    -0.180000       12.0110           0
     12712 MEMB     89       DOPC     H11R     HAL2     0.900000E-01   1.00800           0
     12713 MEMB     89       DOPC     H11S     HAL2     0.900000E-01   1.00800           0
     12714 MEMB     89       DOPC     C212     CTL2    -0.180000       12.0110           0
     12715 MEMB     89       DOPC     H12R     HAL2     0.900000E-01   1.00800           0
     12716 MEMB     89       DOPC     H12S     HAL2     0.900000E-01   1.00800           0
     12717 MEMB     89       DOPC     C213     CTL2    -0.180000       12.0110           0
     12718 MEMB     89       DOPC     H13R     HAL2     0.900000E-01   1.00800           0
     12719 MEMB     89       DOPC     H13S     HAL2     0.900000E-01   1.00800           0
     12720 MEMB     89       DOPC     C214     CTL2    -0.180000       12.0110           0
     12721 MEMB     89       DOPC     H14R     HAL2     0.900000E-01   1.00800           0
     12722 MEMB     89       DOPC     H14S     HAL2     0.900000E-01   1.00800           0
     12723 MEMB     89       DOPC     C215     CTL2    -0.180000       12.0110           0
     12724 MEMB     89       DOPC     H15R     HAL2     0.900000E-01   1.00800           0
     12725 MEMB     89       DOPC     H15S     HAL2     0.900000E-01   1.00800           0
     12726 MEMB     89       DOPC     C216     CTL2    -0.180000       12.0110           0
     12727 MEMB     89       DOPC     H16R     HAL2     0.900000E-01   1.00800           0
     12728 MEMB     89       DOPC     H16S     HAL2     0.900000E-01   1.00800           0
     12729 MEMB     89       DOPC     C217     CTL2    -0.180000       12.0110           0
     12730 MEMB     89       DOPC     H17R     HAL2     0.900000E-01   1.00800           0
     12731 MEMB     89       DOPC     H17S     HAL2     0.900000E-01   1.00800           0
     12732 MEMB     89       DOPC     C218     CTL3    -0.270000       12.0110           0
     12733 MEMB     89       DOPC     H18R     HAL3     0.900000E-01   1.00800           0
     12734 MEMB     89       DOPC     H18S     HAL3     0.900000E-01   1.00800           0
     12735 MEMB     89       DOPC     H18T     HAL3     0.900000E-01   1.00800           0
     12736 MEMB     89       DOPC     C33      CTL2    -0.180000       12.0110           0
     12737 MEMB     89       DOPC     H3X      HAL2     0.900000E-01   1.00800           0
     12738 MEMB     89       DOPC     H3Y      HAL2     0.900000E-01   1.00800           0
     12739 MEMB     89       DOPC     C34      CTL2    -0.180000       12.0110           0
     12740 MEMB     89       DOPC     H4X      HAL2     0.900000E-01   1.00800           0
     12741 MEMB     89       DOPC     H4Y      HAL2     0.900000E-01   1.00800           0
     12742 MEMB     89       DOPC     C35      CTL2    -0.180000       12.0110           0
     12743 MEMB     89       DOPC     H5X      HAL2     0.900000E-01   1.00800           0
     12744 MEMB     89       DOPC     H5Y      HAL2     0.900000E-01   1.00800           0
     12745 MEMB     89       DOPC     C36      CTL2    -0.180000       12.0110           0
     12746 MEMB     89       DOPC     H6X      HAL2     0.900000E-01   1.00800           0
     12747 MEMB     89       DOPC     H6Y      HAL2     0.900000E-01   1.00800           0
     12748 MEMB     89       DOPC     C37      CTL2    -0.180000       12.0110           0
     12749 MEMB     89       DOPC     H7X      HAL2     0.900000E-01   1.00800           0
     12750 MEMB     89       DOPC     H7Y      HAL2     0.900000E-01   1.00800           0
     12751 MEMB     89       DOPC     C38      CTL2    -0.180000       12.0110           0
     12752 MEMB     89       DOPC     H8X      HAL2     0.900000E-01   1.00800           0
     12753 MEMB     89       DOPC     H8Y      HAL2     0.900000E-01   1.00800           0
     12754 MEMB     89       DOPC     C39      CEL1    -0.150000       12.0110           0
     12755 MEMB     89       DOPC     H9X      HEL1     0.150000       1.00800           0
     12756 MEMB     89       DOPC     C310     CEL1    -0.150000       12.0110           0
     12757 MEMB     89       DOPC     H10X     HEL1     0.150000       1.00800           0
     12758 MEMB     89       DOPC     C311     CTL2    -0.180000       12.0110           0
     12759 MEMB     89       DOPC     H11X     HAL2     0.900000E-01   1.00800           0
     12760 MEMB     89       DOPC     H11Y     HAL2     0.900000E-01   1.00800           0
     12761 MEMB     89       DOPC     C312     CTL2    -0.180000       12.0110           0
     12762 MEMB     89       DOPC     H12X     HAL2     0.900000E-01   1.00800           0
     12763 MEMB     89       DOPC     H12Y     HAL2     0.900000E-01   1.00800           0
     12764 MEMB     89       DOPC     C313     CTL2    -0.180000       12.0110           0
     12765 MEMB     89       DOPC     H13X     HAL2     0.900000E-01   1.00800           0
     12766 MEMB     89       DOPC     H13Y     HAL2     0.900000E-01   1.00800           0
     12767 MEMB     89       DOPC     C314     CTL2    -0.180000       12.0110           0
     12768 MEMB     89       DOPC     H14X     HAL2     0.900000E-01   1.00800           0
     12769 MEMB     89       DOPC     H14Y     HAL2     0.900000E-01   1.00800           0
     12770 MEMB     89       DOPC     C315     CTL2    -0.180000       12.0110           0
     12771 MEMB     89       DOPC     H15X     HAL2     0.900000E-01   1.00800           0
     12772 MEMB     89       DOPC     H15Y     HAL2     0.900000E-01   1.00800           0
     12773 MEMB     89       DOPC     C316     CTL2    -0.180000       12.0110           0
     12774 MEMB     89       DOPC     H16X     HAL2     0.900000E-01   1.00800           0
     12775 MEMB     89       DOPC     H16Y     HAL2     0.900000E-01   1.00800           0
     12776 MEMB     89       DOPC     C317     CTL2    -0.180000       12.0110           0
     12777 MEMB     89       DOPC     H17X     HAL2     0.900000E-01   1.00800           0
     12778 MEMB     89       DOPC     H17Y     HAL2     0.900000E-01   1.00800           0
     12779 MEMB     89       DOPC     C318     CTL3    -0.270000       12.0110           0
     12780 MEMB     89       DOPC     H18X     HAL3     0.900000E-01   1.00800           0
     12781 MEMB     89       DOPC     H18Y     HAL3     0.900000E-01   1.00800           0
     12782 MEMB     89       DOPC     H18Z     HAL3     0.900000E-01   1.00800           0
     12783 MEMB     90       DOPC     N        NTL     -0.600000       14.0070           0
     12784 MEMB     90       DOPC     C12      CTL2    -0.100000       12.0110           0
     12785 MEMB     90       DOPC     H12A     HL       0.250000       1.00800           0
     12786 MEMB     90       DOPC     H12B     HL       0.250000       1.00800           0
     12787 MEMB     90       DOPC     C13      CTL5    -0.350000       12.0110           0
     12788 MEMB     90       DOPC     H13A     HL       0.250000       1.00800           0
     12789 MEMB     90       DOPC     H13B     HL       0.250000       1.00800           0
     12790 MEMB     90       DOPC     H13C     HL       0.250000       1.00800           0
     12791 MEMB     90       DOPC     C14      CTL5    -0.350000       12.0110           0
     12792 MEMB     90       DOPC     H14A     HL       0.250000       1.00800           0
     12793 MEMB     90       DOPC     H14B     HL       0.250000       1.00800           0
     12794 MEMB     90       DOPC     H14C     HL       0.250000       1.00800           0
     12795 MEMB     90       DOPC     C15      CTL5    -0.350000       12.0110           0
     12796 MEMB     90       DOPC     H15A     HL       0.250000       1.00800           0
     12797 MEMB     90       DOPC     H15B     HL       0.250000       1.00800           0
     12798 MEMB     90       DOPC     H15C     HL       0.250000       1.00800           0
     12799 MEMB     90       DOPC     C11      CTL2    -0.800000E-01   12.0110           0
     12800 MEMB     90       DOPC     H11A     HAL2     0.900000E-01   1.00800           0
     12801 MEMB     90       DOPC     H11B     HAL2     0.900000E-01   1.00800           0
     12802 MEMB     90       DOPC     P        PL        1.50000       30.9740           0
     12803 MEMB     90       DOPC     O13      O2L     -0.780000       15.9994           0
     12804 MEMB     90       DOPC     O14      O2L     -0.780000       15.9994           0
     12805 MEMB     90       DOPC     O12      OSLP    -0.570000       15.9994           0
     12806 MEMB     90       DOPC     O11      OSLP    -0.570000       15.9994           0
     12807 MEMB     90       DOPC     C1       CTL2    -0.800000E-01   12.0110           0
     12808 MEMB     90       DOPC     HA       HAL2     0.900000E-01   1.00800           0
     12809 MEMB     90       DOPC     HB       HAL2     0.900000E-01   1.00800           0
     12810 MEMB     90       DOPC     C2       CTL1     0.170000       12.0110           0
     12811 MEMB     90       DOPC     HS       HAL1     0.900000E-01   1.00800           0
     12812 MEMB     90       DOPC     O21      OSL     -0.490000       15.9994           0
     12813 MEMB     90       DOPC     C21      CL       0.900000       12.0110           0
     12814 MEMB     90       DOPC     O22      OBL     -0.630000       15.9994           0
     12815 MEMB     90       DOPC     C22      CTL2    -0.220000       12.0110           0
     12816 MEMB     90       DOPC     H2R      HAL2     0.900000E-01   1.00800           0
     12817 MEMB     90       DOPC     H2S      HAL2     0.900000E-01   1.00800           0
     12818 MEMB     90       DOPC     C3       CTL2     0.800000E-01   12.0110           0
     12819 MEMB     90       DOPC     HX       HAL2     0.900000E-01   1.00800           0
     12820 MEMB     90       DOPC     HY       HAL2     0.900000E-01   1.00800           0
     12821 MEMB     90       DOPC     O31      OSL     -0.490000       15.9994           0
     12822 MEMB     90       DOPC     C31      CL       0.900000       12.0110           0
     12823 MEMB     90       DOPC     O32      OBL     -0.630000       15.9994           0
     12824 MEMB     90       DOPC     C32      CTL2    -0.220000       12.0110           0
     12825 MEMB     90       DOPC     H2X      HAL2     0.900000E-01   1.00800           0
     12826 MEMB     90       DOPC     H2Y      HAL2     0.900000E-01   1.00800           0
     12827 MEMB     90       DOPC     C23      CTL2    -0.180000       12.0110           0
     12828 MEMB     90       DOPC     H3R      HAL2     0.900000E-01   1.00800           0
     12829 MEMB     90       DOPC     H3S      HAL2     0.900000E-01   1.00800           0
     12830 MEMB     90       DOPC     C24      CTL2    -0.180000       12.0110           0
     12831 MEMB     90       DOPC     H4R      HAL2     0.900000E-01   1.00800           0
     12832 MEMB     90       DOPC     H4S      HAL2     0.900000E-01   1.00800           0
     12833 MEMB     90       DOPC     C25      CTL2    -0.180000       12.0110           0
     12834 MEMB     90       DOPC     H5R      HAL2     0.900000E-01   1.00800           0
     12835 MEMB     90       DOPC     H5S      HAL2     0.900000E-01   1.00800           0
     12836 MEMB     90       DOPC     C26      CTL2    -0.180000       12.0110           0
     12837 MEMB     90       DOPC     H6R      HAL2     0.900000E-01   1.00800           0
     12838 MEMB     90       DOPC     H6S      HAL2     0.900000E-01   1.00800           0
     12839 MEMB     90       DOPC     C27      CTL2    -0.180000       12.0110           0
     12840 MEMB     90       DOPC     H7R      HAL2     0.900000E-01   1.00800           0
     12841 MEMB     90       DOPC     H7S      HAL2     0.900000E-01   1.00800           0
     12842 MEMB     90       DOPC     C28      CTL2    -0.180000       12.0110           0
     12843 MEMB     90       DOPC     H8R      HAL2     0.900000E-01   1.00800           0
     12844 MEMB     90       DOPC     H8S      HAL2     0.900000E-01   1.00800           0
     12845 MEMB     90       DOPC     C29      CEL1    -0.150000       12.0110           0
     12846 MEMB     90       DOPC     H9R      HEL1     0.150000       1.00800           0
     12847 MEMB     90       DOPC     C210     CEL1    -0.150000       12.0110           0
     12848 MEMB     90       DOPC     H10R     HEL1     0.150000       1.00800           0
     12849 MEMB     90       DOPC     C211     CTL2    -0.180000       12.0110           0
     12850 MEMB     90       DOPC     H11R     HAL2     0.900000E-01   1.00800           0
     12851 MEMB     90       DOPC     H11S     HAL2     0.900000E-01   1.00800           0
     12852 MEMB     90       DOPC     C212     CTL2    -0.180000       12.0110           0
     12853 MEMB     90       DOPC     H12R     HAL2     0.900000E-01   1.00800           0
     12854 MEMB     90       DOPC     H12S     HAL2     0.900000E-01   1.00800           0
     12855 MEMB     90       DOPC     C213     CTL2    -0.180000       12.0110           0
     12856 MEMB     90       DOPC     H13R     HAL2     0.900000E-01   1.00800           0
     12857 MEMB     90       DOPC     H13S     HAL2     0.900000E-01   1.00800           0
     12858 MEMB     90       DOPC     C214     CTL2    -0.180000       12.0110           0
     12859 MEMB     90       DOPC     H14R     HAL2     0.900000E-01   1.00800           0
     12860 MEMB     90       DOPC     H14S     HAL2     0.900000E-01   1.00800           0
     12861 MEMB     90       DOPC     C215     CTL2    -0.180000       12.0110           0
     12862 MEMB     90       DOPC     H15R     HAL2     0.900000E-01   1.00800           0
     12863 MEMB     90       DOPC     H15S     HAL2     0.900000E-01   1.00800           0
     12864 MEMB     90       DOPC     C216     CTL2    -0.180000       12.0110           0
     12865 MEMB     90       DOPC     H16R     HAL2     0.900000E-01   1.00800           0
     12866 MEMB     90       DOPC     H16S     HAL2     0.900000E-01   1.00800           0
     12867 MEMB     90       DOPC     C217     CTL2    -0.180000       12.0110           0
     12868 MEMB     90       DOPC     H17R     HAL2     0.900000E-01   1.00800           0
     12869 MEMB     90       DOPC     H17S     HAL2     0.900000E-01   1.00800           0
     12870 MEMB     90       DOPC     C218     CTL3    -0.270000       12.0110           0
     12871 MEMB     90       DOPC     H18R     HAL3     0.900000E-01   1.00800           0
     12872 MEMB     90       DOPC     H18S     HAL3     0.900000E-01   1.00800           0
     12873 MEMB     90       DOPC     H18T     HAL3     0.900000E-01   1.00800           0
     12874 MEMB     90       DOPC     C33      CTL2    -0.180000       12.0110           0
     12875 MEMB     90       DOPC     H3X      HAL2     0.900000E-01   1.00800           0
     12876 MEMB     90       DOPC     H3Y      HAL2     0.900000E-01   1.00800           0
     12877 MEMB     90       DOPC     C34      CTL2    -0.180000       12.0110           0
     12878 MEMB     90       DOPC     H4X      HAL2     0.900000E-01   1.00800           0
     12879 MEMB     90       DOPC     H4Y      HAL2     0.900000E-01   1.00800           0
     12880 MEMB     90       DOPC     C35      CTL2    -0.180000       12.0110           0
     12881 MEMB     90       DOPC     H5X      HAL2     0.900000E-01   1.00800           0
     12882 MEMB     90       DOPC     H5Y      HAL2     0.900000E-01   1.00800           0
     12883 MEMB     90       DOPC     C36      CTL2    -0.180000       12.0110           0
     12884 MEMB     90       DOPC     H6X      HAL2     0.900000E-01   1.00800           0
     12885 MEMB     90       DOPC     H6Y      HAL2     0.900000E-01   1.00800           0
     12886 MEMB     90       DOPC     C37      CTL2    -0.180000       12.0110           0
     12887 MEMB     90       DOPC     H7X      HAL2     0.900000E-01   1.00800           0
     12888 MEMB     90       DOPC     H7Y      HAL2     0.900000E-01   1.00800           0
     12889 MEMB     90       DOPC     C38      CTL2    -0.180000       12.0110           0
     12890 MEMB     90       DOPC     H8X      HAL2     0.900000E-01   1.00800           0
     12891 MEMB     90       DOPC     H8Y      HAL2     0.900000E-01   1.00800           0
     12892 MEMB     90       DOPC     C39      CEL1    -0.150000       12.0110           0
     12893 MEMB     90       DOPC     H9X      HEL1     0.150000       1.00800           0
     12894 MEMB     90       DOPC     C310     CEL1    -0.150000       12.0110           0
     12895 MEMB     90       DOPC     H10X     HEL1     0.150000       1.00800           0
     12896 MEMB     90       DOPC     C311     CTL2    -0.180000       12.0110           0
     12897 MEMB     90       DOPC     H11X     HAL2     0.900000E-01   1.00800           0
     12898 MEMB     90       DOPC     H11Y     HAL2     0.900000E-01   1.00800           0
     12899 MEMB     90       DOPC     C312     CTL2    -0.180000       12.0110           0
     12900 MEMB     90       DOPC     H12X     HAL2     0.900000E-01   1.00800           0
     12901 MEMB     90       DOPC     H12Y     HAL2     0.900000E-01   1.00800           0
     12902 MEMB     90       DOPC     C313     CTL2    -0.180000       12.0110           0
     12903 MEMB     90       DOPC     H13X     HAL2     0.900000E-01   1.00800           0
     12904 MEMB     90       DOPC     H13Y     HAL2     0.900000E-01   1.00800           0
     12905 MEMB     90       DOPC     C314     CTL2    -0.180000       12.0110           0
     12906 MEMB     90       DOPC     H14X     HAL2     0.900000E-01   1.00800           0
     12907 MEMB     90       DOPC     H14Y     HAL2     0.900000E-01   1.00800           0
     12908 MEMB     90       DOPC     C315     CTL2    -0.180000       12.0110           0
     12909 MEMB     90       DOPC     H15X     HAL2     0.900000E-01   1.00800           0
     12910 MEMB     90       DOPC     H15Y     HAL2     0.900000E-01   1.00800           0
     12911 MEMB     90       DOPC     C316     CTL2    -0.180000       12.0110           0
     12912 MEMB     90       DOPC     H16X     HAL2     0.900000E-01   1.00800           0
     12913 MEMB     90       DOPC     H16Y     HAL2     0.900000E-01   1.00800           0
     12914 MEMB     90       DOPC     C317     CTL2    -0.180000       12.0110           0
     12915 MEMB     90       DOPC     H17X     HAL2     0.900000E-01   1.00800           0
     12916 MEMB     90       DOPC     H17Y     HAL2     0.900000E-01   1.00800           0
     12917 MEMB     90       DOPC     C318     CTL3    -0.270000       12.0110           0
     12918 MEMB     90       DOPC     H18X     HAL3     0.900000E-01   1.00800           0
     12919 MEMB     90       DOPC     H18Y     HAL3     0.900000E-01   1.00800           0
     12920 MEMB     90       DOPC     H18Z     HAL3     0.900000E-01   1.00800           0
     12921 MEMB     91       DOPC     N        NTL     -0.600000       14.0070           0
     12922 MEMB     91       DOPC     C12      CTL2    -0.100000       12.0110           0
     12923 MEMB     91       DOPC     H12A     HL       0.250000       1.00800           0
     12924 MEMB     91       DOPC     H12B     HL       0.250000       1.00800           0
     12925 MEMB     91       DOPC     C13      CTL5    -0.350000       12.0110           0
     12926 MEMB     91       DOPC     H13A     HL       0.250000       1.00800           0
     12927 MEMB     91       DOPC     H13B     HL       0.250000       1.00800           0
     12928 MEMB     91       DOPC     H13C     HL       0.250000       1.00800           0
     12929 MEMB     91       DOPC     C14      CTL5    -0.350000       12.0110           0
     12930 MEMB     91       DOPC     H14A     HL       0.250000       1.00800           0
     12931 MEMB     91       DOPC     H14B     HL       0.250000       1.00800           0
     12932 MEMB     91       DOPC     H14C     HL       0.250000       1.00800           0
     12933 MEMB     91       DOPC     C15      CTL5    -0.350000       12.0110           0
     12934 MEMB     91       DOPC     H15A     HL       0.250000       1.00800           0
     12935 MEMB     91       DOPC     H15B     HL       0.250000       1.00800           0
     12936 MEMB     91       DOPC     H15C     HL       0.250000       1.00800           0
     12937 MEMB     91       DOPC     C11      CTL2    -0.800000E-01   12.0110           0
     12938 MEMB     91       DOPC     H11A     HAL2     0.900000E-01   1.00800           0
     12939 MEMB     91       DOPC     H11B     HAL2     0.900000E-01   1.00800           0
     12940 MEMB     91       DOPC     P        PL        1.50000       30.9740           0
     12941 MEMB     91       DOPC     O13      O2L     -0.780000       15.9994           0
     12942 MEMB     91       DOPC     O14      O2L     -0.780000       15.9994           0
     12943 MEMB     91       DOPC     O12      OSLP    -0.570000       15.9994           0
     12944 MEMB     91       DOPC     O11      OSLP    -0.570000       15.9994           0
     12945 MEMB     91       DOPC     C1       CTL2    -0.800000E-01   12.0110           0
     12946 MEMB     91       DOPC     HA       HAL2     0.900000E-01   1.00800           0
     12947 MEMB     91       DOPC     HB       HAL2     0.900000E-01   1.00800           0
     12948 MEMB     91       DOPC     C2       CTL1     0.170000       12.0110           0
     12949 MEMB     91       DOPC     HS       HAL1     0.900000E-01   1.00800           0
     12950 MEMB     91       DOPC     O21      OSL     -0.490000       15.9994           0
     12951 MEMB     91       DOPC     C21      CL       0.900000       12.0110           0
     12952 MEMB     91       DOPC     O22      OBL     -0.630000       15.9994           0
     12953 MEMB     91       DOPC     C22      CTL2    -0.220000       12.0110           0
     12954 MEMB     91       DOPC     H2R      HAL2     0.900000E-01   1.00800           0
     12955 MEMB     91       DOPC     H2S      HAL2     0.900000E-01   1.00800           0
     12956 MEMB     91       DOPC     C3       CTL2     0.800000E-01   12.0110           0
     12957 MEMB     91       DOPC     HX       HAL2     0.900000E-01   1.00800           0
     12958 MEMB     91       DOPC     HY       HAL2     0.900000E-01   1.00800           0
     12959 MEMB     91       DOPC     O31      OSL     -0.490000       15.9994           0
     12960 MEMB     91       DOPC     C31      CL       0.900000       12.0110           0
     12961 MEMB     91       DOPC     O32      OBL     -0.630000       15.9994           0
     12962 MEMB     91       DOPC     C32      CTL2    -0.220000       12.0110           0
     12963 MEMB     91       DOPC     H2X      HAL2     0.900000E-01   1.00800           0
     12964 MEMB     91       DOPC     H2Y      HAL2     0.900000E-01   1.00800           0
     12965 MEMB     91       DOPC     C23      CTL2    -0.180000       12.0110           0
     12966 MEMB     91       DOPC     H3R      HAL2     0.900000E-01   1.00800           0
     12967 MEMB     91       DOPC     H3S      HAL2     0.900000E-01   1.00800           0
     12968 MEMB     91       DOPC     C24      CTL2    -0.180000       12.0110           0
     12969 MEMB     91       DOPC     H4R      HAL2     0.900000E-01   1.00800           0
     12970 MEMB     91       DOPC     H4S      HAL2     0.900000E-01   1.00800           0
     12971 MEMB     91       DOPC     C25      CTL2    -0.180000       12.0110           0
     12972 MEMB     91       DOPC     H5R      HAL2     0.900000E-01   1.00800           0
     12973 MEMB     91       DOPC     H5S      HAL2     0.900000E-01   1.00800           0
     12974 MEMB     91       DOPC     C26      CTL2    -0.180000       12.0110           0
     12975 MEMB     91       DOPC     H6R      HAL2     0.900000E-01   1.00800           0
     12976 MEMB     91       DOPC     H6S      HAL2     0.900000E-01   1.00800           0
     12977 MEMB     91       DOPC     C27      CTL2    -0.180000       12.0110           0
     12978 MEMB     91       DOPC     H7R      HAL2     0.900000E-01   1.00800           0
     12979 MEMB     91       DOPC     H7S      HAL2     0.900000E-01   1.00800           0
     12980 MEMB     91       DOPC     C28      CTL2    -0.180000       12.0110           0
     12981 MEMB     91       DOPC     H8R      HAL2     0.900000E-01   1.00800           0
     12982 MEMB     91       DOPC     H8S      HAL2     0.900000E-01   1.00800           0
     12983 MEMB     91       DOPC     C29      CEL1    -0.150000       12.0110           0
     12984 MEMB     91       DOPC     H9R      HEL1     0.150000       1.00800           0
     12985 MEMB     91       DOPC     C210     CEL1    -0.150000       12.0110           0
     12986 MEMB     91       DOPC     H10R     HEL1     0.150000       1.00800           0
     12987 MEMB     91       DOPC     C211     CTL2    -0.180000       12.0110           0
     12988 MEMB     91       DOPC     H11R     HAL2     0.900000E-01   1.00800           0
     12989 MEMB     91       DOPC     H11S     HAL2     0.900000E-01   1.00800           0
     12990 MEMB     91       DOPC     C212     CTL2    -0.180000       12.0110           0
     12991 MEMB     91       DOPC     H12R     HAL2     0.900000E-01   1.00800           0
     12992 MEMB     91       DOPC     H12S     HAL2     0.900000E-01   1.00800           0
     12993 MEMB     91       DOPC     C213     CTL2    -0.180000       12.0110           0
     12994 MEMB     91       DOPC     H13R     HAL2     0.900000E-01   1.00800           0
     12995 MEMB     91       DOPC     H13S     HAL2     0.900000E-01   1.00800           0
     12996 MEMB     91       DOPC     C214     CTL2    -0.180000       12.0110           0
     12997 MEMB     91       DOPC     H14R     HAL2     0.900000E-01   1.00800           0
     12998 MEMB     91       DOPC     H14S     HAL2     0.900000E-01   1.00800           0
     12999 MEMB     91       DOPC     C215     CTL2    -0.180000       12.0110           0
     13000 MEMB     91       DOPC     H15R     HAL2     0.900000E-01   1.00800           0
     13001 MEMB     91       DOPC     H15S     HAL2     0.900000E-01   1.00800           0
     13002 MEMB     91       DOPC     C216     CTL2    -0.180000       12.0110           0
     13003 MEMB     91       DOPC     H16R     HAL2     0.900000E-01   1.00800           0
     13004 MEMB     91       DOPC     H16S     HAL2     0.900000E-01   1.00800           0
     13005 MEMB     91       DOPC     C217     CTL2    -0.180000       12.0110           0
     13006 MEMB     91       DOPC     H17R     HAL2     0.900000E-01   1.00800           0
     13007 MEMB     91       DOPC     H17S     HAL2     0.900000E-01   1.00800           0
     13008 MEMB     91       DOPC     C218     CTL3    -0.270000       12.0110           0
     13009 MEMB     91       DOPC     H18R     HAL3     0.900000E-01   1.00800           0
     13010 MEMB     91       DOPC     H18S     HAL3     0.900000E-01   1.00800           0
     13011 MEMB     91       DOPC     H18T     HAL3     0.900000E-01   1.00800           0
     13012 MEMB     91       DOPC     C33      CTL2    -0.180000       12.0110           0
     13013 MEMB     91       DOPC     H3X      HAL2     0.900000E-01   1.00800           0
     13014 MEMB     91       DOPC     H3Y      HAL2     0.900000E-01   1.00800           0
     13015 MEMB     91       DOPC     C34      CTL2    -0.180000       12.0110           0
     13016 MEMB     91       DOPC     H4X      HAL2     0.900000E-01   1.00800           0
     13017 MEMB     91       DOPC     H4Y      HAL2     0.900000E-01   1.00800           0
     13018 MEMB     91       DOPC     C35      CTL2    -0.180000       12.0110           0
     13019 MEMB     91       DOPC     H5X      HAL2     0.900000E-01   1.00800           0
     13020 MEMB     91       DOPC     H5Y      HAL2     0.900000E-01   1.00800           0
     13021 MEMB     91       DOPC     C36      CTL2    -0.180000       12.0110           0
     13022 MEMB     91       DOPC     H6X      HAL2     0.900000E-01   1.00800           0
     13023 MEMB     91       DOPC     H6Y      HAL2     0.900000E-01   1.00800           0
     13024 MEMB     91       DOPC     C37      CTL2    -0.180000       12.0110           0
     13025 MEMB     91       DOPC     H7X      HAL2     0.900000E-01   1.00800           0
     13026 MEMB     91       DOPC     H7Y      HAL2     0.900000E-01   1.00800           0
     13027 MEMB     91       DOPC     C38      CTL2    -0.180000       12.0110           0
     13028 MEMB     91       DOPC     H8X      HAL2     0.900000E-01   1.00800           0
     13029 MEMB     91       DOPC     H8Y      HAL2     0.900000E-01   1.00800           0
     13030 MEMB     91       DOPC     C39      CEL1    -0.150000       12.0110           0
     13031 MEMB     91       DOPC     H9X      HEL1     0.150000       1.00800           0
     13032 MEMB     91       DOPC     C310     CEL1    -0.150000       12.0110           0
     13033 MEMB     91       DOPC     H10X     HEL1     0.150000       1.00800           0
     13034 MEMB     91       DOPC     C311     CTL2    -0.180000       12.0110           0
     13035 MEMB     91       DOPC     H11X     HAL2     0.900000E-01   1.00800           0
     13036 MEMB     91       DOPC     H11Y     HAL2     0.900000E-01   1.00800           0
     13037 MEMB     91       DOPC     C312     CTL2    -0.180000       12.0110           0
     13038 MEMB     91       DOPC     H12X     HAL2     0.900000E-01   1.00800           0
     13039 MEMB     91       DOPC     H12Y     HAL2     0.900000E-01   1.00800           0
     13040 MEMB     91       DOPC     C313     CTL2    -0.180000       12.0110           0
     13041 MEMB     91       DOPC     H13X     HAL2     0.900000E-01   1.00800           0
     13042 MEMB     91       DOPC     H13Y     HAL2     0.900000E-01   1.00800           0
     13043 MEMB     91       DOPC     C314     CTL2    -0.180000       12.0110           0
     13044 MEMB     91       DOPC     H14X     HAL2     0.900000E-01   1.00800           0
     13045 MEMB     91       DOPC     H14Y     HAL2     0.900000E-01   1.00800           0
     13046 MEMB     91       DOPC     C315     CTL2    -0.180000       12.0110           0
     13047 MEMB     91       DOPC     H15X     HAL2     0.900000E-01   1.00800           0
     13048 MEMB     91       DOPC     H15Y     HAL2     0.900000E-01   1.00800           0
     13049 MEMB     91       DOPC     C316     CTL2    -0.180000       12.0110           0
     13050 MEMB     91       DOPC     H16X     HAL2     0.900000E-01   1.00800           0
     13051 MEMB     91       DOPC     H16Y     HAL2     0.900000E-01   1.00800           0
     13052 MEMB     91       DOPC     C317     CTL2    -0.180000       12.0110           0
     13053 MEMB     91       DOPC     H17X     HAL2     0.900000E-01   1.00800           0
     13054 MEMB     91       DOPC     H17Y     HAL2     0.900000E-01   1.00800           0
     13055 MEMB     91       DOPC     C318     CTL3    -0.270000       12.0110           0
     13056 MEMB     91       DOPC     H18X     HAL3     0.900000E-01   1.00800           0
     13057 MEMB     91       DOPC     H18Y     HAL3     0.900000E-01   1.00800           0
     13058 MEMB     91       DOPC     H18Z     HAL3     0.900000E-01   1.00800           0
     13059 MEMB     92       DOPC     N        NTL     -0.600000       14.0070           0
     13060 MEMB     92       DOPC     C12      CTL2    -0.100000       12.0110           0
     13061 MEMB     92       DOPC     H12A     HL       0.250000       1.00800           0
     13062 MEMB     92       DOPC     H12B     HL       0.250000       1.00800           0
     13063 MEMB     92       DOPC     C13      CTL5    -0.350000       12.0110           0
     13064 MEMB     92       DOPC     H13A     HL       0.250000       1.00800           0
     13065 MEMB     92       DOPC     H13B     HL       0.250000       1.00800           0
     13066 MEMB     92       DOPC     H13C     HL       0.250000       1.00800           0
     13067 MEMB     92       DOPC     C14      CTL5    -0.350000       12.0110           0
     13068 MEMB     92       DOPC     H14A     HL       0.250000       1.00800           0
     13069 MEMB     92       DOPC     H14B     HL       0.250000       1.00800           0
     13070 MEMB     92       DOPC     H14C     HL       0.250000       1.00800           0
     13071 MEMB     92       DOPC     C15      CTL5    -0.350000       12.0110           0
     13072 MEMB     92       DOPC     H15A     HL       0.250000       1.00800           0
     13073 MEMB     92       DOPC     H15B     HL       0.250000       1.00800           0
     13074 MEMB     92       DOPC     H15C     HL       0.250000       1.00800           0
     13075 MEMB     92       DOPC     C11      CTL2    -0.800000E-01   12.0110           0
     13076 MEMB     92       DOPC     H11A     HAL2     0.900000E-01   1.00800           0
     13077 MEMB     92       DOPC     H11B     HAL2     0.900000E-01   1.00800           0
     13078 MEMB     92       DOPC     P        PL        1.50000       30.9740           0
     13079 MEMB     92       DOPC     O13      O2L     -0.780000       15.9994           0
     13080 MEMB     92       DOPC     O14      O2L     -0.780000       15.9994           0
     13081 MEMB     92       DOPC     O12      OSLP    -0.570000       15.9994           0
     13082 MEMB     92       DOPC     O11      OSLP    -0.570000       15.9994           0
     13083 MEMB     92       DOPC     C1       CTL2    -0.800000E-01   12.0110           0
     13084 MEMB     92       DOPC     HA       HAL2     0.900000E-01   1.00800           0
     13085 MEMB     92       DOPC     HB       HAL2     0.900000E-01   1.00800           0
     13086 MEMB     92       DOPC     C2       CTL1     0.170000       12.0110           0
     13087 MEMB     92       DOPC     HS       HAL1     0.900000E-01   1.00800           0
     13088 MEMB     92       DOPC     O21      OSL     -0.490000       15.9994           0
     13089 MEMB     92       DOPC     C21      CL       0.900000       12.0110           0
     13090 MEMB     92       DOPC     O22      OBL     -0.630000       15.9994           0
     13091 MEMB     92       DOPC     C22      CTL2    -0.220000       12.0110           0
     13092 MEMB     92       DOPC     H2R      HAL2     0.900000E-01   1.00800           0
     13093 MEMB     92       DOPC     H2S      HAL2     0.900000E-01   1.00800           0
     13094 MEMB     92       DOPC     C3       CTL2     0.800000E-01   12.0110           0
     13095 MEMB     92       DOPC     HX       HAL2     0.900000E-01   1.00800           0
     13096 MEMB     92       DOPC     HY       HAL2     0.900000E-01   1.00800           0
     13097 MEMB     92       DOPC     O31      OSL     -0.490000       15.9994           0
     13098 MEMB     92       DOPC     C31      CL       0.900000       12.0110           0
     13099 MEMB     92       DOPC     O32      OBL     -0.630000       15.9994           0
     13100 MEMB     92       DOPC     C32      CTL2    -0.220000       12.0110           0
     13101 MEMB     92       DOPC     H2X      HAL2     0.900000E-01   1.00800           0
     13102 MEMB     92       DOPC     H2Y      HAL2     0.900000E-01   1.00800           0
     13103 MEMB     92       DOPC     C23      CTL2    -0.180000       12.0110           0
     13104 MEMB     92       DOPC     H3R      HAL2     0.900000E-01   1.00800           0
     13105 MEMB     92       DOPC     H3S      HAL2     0.900000E-01   1.00800           0
     13106 MEMB     92       DOPC     C24      CTL2    -0.180000       12.0110           0
     13107 MEMB     92       DOPC     H4R      HAL2     0.900000E-01   1.00800           0
     13108 MEMB     92       DOPC     H4S      HAL2     0.900000E-01   1.00800           0
     13109 MEMB     92       DOPC     C25      CTL2    -0.180000       12.0110           0
     13110 MEMB     92       DOPC     H5R      HAL2     0.900000E-01   1.00800           0
     13111 MEMB     92       DOPC     H5S      HAL2     0.900000E-01   1.00800           0
     13112 MEMB     92       DOPC     C26      CTL2    -0.180000       12.0110           0
     13113 MEMB     92       DOPC     H6R      HAL2     0.900000E-01   1.00800           0
     13114 MEMB     92       DOPC     H6S      HAL2     0.900000E-01   1.00800           0
     13115 MEMB     92       DOPC     C27      CTL2    -0.180000       12.0110           0
     13116 MEMB     92       DOPC     H7R      HAL2     0.900000E-01   1.00800           0
     13117 MEMB     92       DOPC     H7S      HAL2     0.900000E-01   1.00800           0
     13118 MEMB     92       DOPC     C28      CTL2    -0.180000       12.0110           0
     13119 MEMB     92       DOPC     H8R      HAL2     0.900000E-01   1.00800           0
     13120 MEMB     92       DOPC     H8S      HAL2     0.900000E-01   1.00800           0
     13121 MEMB     92       DOPC     C29      CEL1    -0.150000       12.0110           0
     13122 MEMB     92       DOPC     H9R      HEL1     0.150000       1.00800           0
     13123 MEMB     92       DOPC     C210     CEL1    -0.150000       12.0110           0
     13124 MEMB     92       DOPC     H10R     HEL1     0.150000       1.00800           0
     13125 MEMB     92       DOPC     C211     CTL2    -0.180000       12.0110           0
     13126 MEMB     92       DOPC     H11R     HAL2     0.900000E-01   1.00800           0
     13127 MEMB     92       DOPC     H11S     HAL2     0.900000E-01   1.00800           0
     13128 MEMB     92       DOPC     C212     CTL2    -0.180000       12.0110           0
     13129 MEMB     92       DOPC     H12R     HAL2     0.900000E-01   1.00800           0
     13130 MEMB     92       DOPC     H12S     HAL2     0.900000E-01   1.00800           0
     13131 MEMB     92       DOPC     C213     CTL2    -0.180000       12.0110           0
     13132 MEMB     92       DOPC     H13R     HAL2     0.900000E-01   1.00800           0
     13133 MEMB     92       DOPC     H13S     HAL2     0.900000E-01   1.00800           0
     13134 MEMB     92       DOPC     C214     CTL2    -0.180000       12.0110           0
     13135 MEMB     92       DOPC     H14R     HAL2     0.900000E-01   1.00800           0
     13136 MEMB     92       DOPC     H14S     HAL2     0.900000E-01   1.00800           0
     13137 MEMB     92       DOPC     C215     CTL2    -0.180000       12.0110           0
     13138 MEMB     92       DOPC     H15R     HAL2     0.900000E-01   1.00800           0
     13139 MEMB     92       DOPC     H15S     HAL2     0.900000E-01   1.00800           0
     13140 MEMB     92       DOPC     C216     CTL2    -0.180000       12.0110           0
     13141 MEMB     92       DOPC     H16R     HAL2     0.900000E-01   1.00800           0
     13142 MEMB     92       DOPC     H16S     HAL2     0.900000E-01   1.00800           0
     13143 MEMB     92       DOPC     C217     CTL2    -0.180000       12.0110           0
     13144 MEMB     92       DOPC     H17R     HAL2     0.900000E-01   1.00800           0
     13145 MEMB     92       DOPC     H17S     HAL2     0.900000E-01   1.00800           0
     13146 MEMB     92       DOPC     C218     CTL3    -0.270000       12.0110           0
     13147 MEMB     92       DOPC     H18R     HAL3     0.900000E-01   1.00800           0
     13148 MEMB     92       DOPC     H18S     HAL3     0.900000E-01   1.00800           0
     13149 MEMB     92       DOPC     H18T     HAL3     0.900000E-01   1.00800           0
     13150 MEMB     92       DOPC     C33      CTL2    -0.180000       12.0110           0
     13151 MEMB     92       DOPC     H3X      HAL2     0.900000E-01   1.00800           0
     13152 MEMB     92       DOPC     H3Y      HAL2     0.900000E-01   1.00800           0
     13153 MEMB     92       DOPC     C34      CTL2    -0.180000       12.0110           0
     13154 MEMB     92       DOPC     H4X      HAL2     0.900000E-01   1.00800           0
     13155 MEMB     92       DOPC     H4Y      HAL2     0.900000E-01   1.00800           0
     13156 MEMB     92       DOPC     C35      CTL2    -0.180000       12.0110           0
     13157 MEMB     92       DOPC     H5X      HAL2     0.900000E-01   1.00800           0
     13158 MEMB     92       DOPC     H5Y      HAL2     0.900000E-01   1.00800           0
     13159 MEMB     92       DOPC     C36      CTL2    -0.180000       12.0110           0
     13160 MEMB     92       DOPC     H6X      HAL2     0.900000E-01   1.00800           0
     13161 MEMB     92       DOPC     H6Y      HAL2     0.900000E-01   1.00800           0
     13162 MEMB     92       DOPC     C37      CTL2    -0.180000       12.0110           0
     13163 MEMB     92       DOPC     H7X      HAL2     0.900000E-01   1.00800           0
     13164 MEMB     92       DOPC     H7Y      HAL2     0.900000E-01   1.00800           0
     13165 MEMB     92       DOPC     C38      CTL2    -0.180000       12.0110           0
     13166 MEMB     92       DOPC     H8X      HAL2     0.900000E-01   1.00800           0
     13167 MEMB     92       DOPC     H8Y      HAL2     0.900000E-01   1.00800           0
     13168 MEMB     92       DOPC     C39      CEL1    -0.150000       12.0110           0
     13169 MEMB     92       DOPC     H9X      HEL1     0.150000       1.00800           0
     13170 MEMB     92       DOPC     C310     CEL1    -0.150000       12.0110           0
     13171 MEMB     92       DOPC     H10X     HEL1     0.150000       1.00800           0
     13172 MEMB     92       DOPC     C311     CTL2    -0.180000       12.0110           0
     13173 MEMB     92       DOPC     H11X     HAL2     0.900000E-01   1.00800           0
     13174 MEMB     92       DOPC     H11Y     HAL2     0.900000E-01   1.00800           0
     13175 MEMB     92       DOPC     C312     CTL2    -0.180000       12.0110           0
     13176 MEMB     92       DOPC     H12X     HAL2     0.900000E-01   1.00800           0
     13177 MEMB     92       DOPC     H12Y     HAL2     0.900000E-01   1.00800           0
     13178 MEMB     92       DOPC     C313     CTL2    -0.180000       12.0110           0
     13179 MEMB     92       DOPC     H13X     HAL2     0.900000E-01   1.00800           0
     13180 MEMB     92       DOPC     H13Y     HAL2     0.900000E-01   1.00800           0
     13181 MEMB     92       DOPC     C314     CTL2    -0.180000       12.0110           0
     13182 MEMB     92       DOPC     H14X     HAL2     0.900000E-01   1.00800           0
     13183 MEMB     92       DOPC     H14Y     HAL2     0.900000E-01   1.00800           0
     13184 MEMB     92       DOPC     C315     CTL2    -0.180000       12.0110           0
     13185 MEMB     92       DOPC     H15X     HAL2     0.900000E-01   1.00800           0
     13186 MEMB     92       DOPC     H15Y     HAL2     0.900000E-01   1.00800           0
     13187 MEMB     92       DOPC     C316     CTL2    -0.180000       12.0110           0
     13188 MEMB     92       DOPC     H16X     HAL2     0.900000E-01   1.00800           0
     13189 MEMB     92       DOPC     H16Y     HAL2     0.900000E-01   1.00800           0
     13190 MEMB     92       DOPC     C317     CTL2    -0.180000       12.0110           0
     13191 MEMB     92       DOPC     H17X     HAL2     0.900000E-01   1.00800           0
     13192 MEMB     92       DOPC     H17Y     HAL2     0.900000E-01   1.00800           0
     13193 MEMB     92       DOPC     C318     CTL3    -0.270000       12.0110           0
     13194 MEMB     92       DOPC     H18X     HAL3     0.900000E-01   1.00800           0
     13195 MEMB     92       DOPC     H18Y     HAL3     0.900000E-01   1.00800           0
     13196 MEMB     92       DOPC     H18Z     HAL3     0.900000E-01   1.00800           0
     13197 MEMB     93       DOPC     N        NTL     -0.600000       14.0070           0
     13198 MEMB     93       DOPC     C12      CTL2    -0.100000       12.0110           0
     13199 MEMB     93       DOPC     H12A     HL       0.250000       1.00800           0
     13200 MEMB     93       DOPC     H12B     HL       0.250000       1.00800           0
     13201 MEMB     93       DOPC     C13      CTL5    -0.350000       12.0110           0
     13202 MEMB     93       DOPC     H13A     HL       0.250000       1.00800           0
     13203 MEMB     93       DOPC     H13B     HL       0.250000       1.00800           0
     13204 MEMB     93       DOPC     H13C     HL       0.250000       1.00800           0
     13205 MEMB     93       DOPC     C14      CTL5    -0.350000       12.0110           0
     13206 MEMB     93       DOPC     H14A     HL       0.250000       1.00800           0
     13207 MEMB     93       DOPC     H14B     HL       0.250000       1.00800           0
     13208 MEMB     93       DOPC     H14C     HL       0.250000       1.00800           0
     13209 MEMB     93       DOPC     C15      CTL5    -0.350000       12.0110           0
     13210 MEMB     93       DOPC     H15A     HL       0.250000       1.00800           0
     13211 MEMB     93       DOPC     H15B     HL       0.250000       1.00800           0
     13212 MEMB     93       DOPC     H15C     HL       0.250000       1.00800           0
     13213 MEMB     93       DOPC     C11      CTL2    -0.800000E-01   12.0110           0
     13214 MEMB     93       DOPC     H11A     HAL2     0.900000E-01   1.00800           0
     13215 MEMB     93       DOPC     H11B     HAL2     0.900000E-01   1.00800           0
     13216 MEMB     93       DOPC     P        PL        1.50000       30.9740           0
     13217 MEMB     93       DOPC     O13      O2L     -0.780000       15.9994           0
     13218 MEMB     93       DOPC     O14      O2L     -0.780000       15.9994           0
     13219 MEMB     93       DOPC     O12      OSLP    -0.570000       15.9994           0
     13220 MEMB     93       DOPC     O11      OSLP    -0.570000       15.9994           0
     13221 MEMB     93       DOPC     C1       CTL2    -0.800000E-01   12.0110           0
     13222 MEMB     93       DOPC     HA       HAL2     0.900000E-01   1.00800           0
     13223 MEMB     93       DOPC     HB       HAL2     0.900000E-01   1.00800           0
     13224 MEMB     93       DOPC     C2       CTL1     0.170000       12.0110           0
     13225 MEMB     93       DOPC     HS       HAL1     0.900000E-01   1.00800           0
     13226 MEMB     93       DOPC     O21      OSL     -0.490000       15.9994           0
     13227 MEMB     93       DOPC     C21      CL       0.900000       12.0110           0
     13228 MEMB     93       DOPC     O22      OBL     -0.630000       15.9994           0
     13229 MEMB     93       DOPC     C22      CTL2    -0.220000       12.0110           0
     13230 MEMB     93       DOPC     H2R      HAL2     0.900000E-01   1.00800           0
     13231 MEMB     93       DOPC     H2S      HAL2     0.900000E-01   1.00800           0
     13232 MEMB     93       DOPC     C3       CTL2     0.800000E-01   12.0110           0
     13233 MEMB     93       DOPC     HX       HAL2     0.900000E-01   1.00800           0
     13234 MEMB     93       DOPC     HY       HAL2     0.900000E-01   1.00800           0
     13235 MEMB     93       DOPC     O31      OSL     -0.490000       15.9994           0
     13236 MEMB     93       DOPC     C31      CL       0.900000       12.0110           0
     13237 MEMB     93       DOPC     O32      OBL     -0.630000       15.9994           0
     13238 MEMB     93       DOPC     C32      CTL2    -0.220000       12.0110           0
     13239 MEMB     93       DOPC     H2X      HAL2     0.900000E-01   1.00800           0
     13240 MEMB     93       DOPC     H2Y      HAL2     0.900000E-01   1.00800           0
     13241 MEMB     93       DOPC     C23      CTL2    -0.180000       12.0110           0
     13242 MEMB     93       DOPC     H3R      HAL2     0.900000E-01   1.00800           0
     13243 MEMB     93       DOPC     H3S      HAL2     0.900000E-01   1.00800           0
     13244 MEMB     93       DOPC     C24      CTL2    -0.180000       12.0110           0
     13245 MEMB     93       DOPC     H4R      HAL2     0.900000E-01   1.00800           0
     13246 MEMB     93       DOPC     H4S      HAL2     0.900000E-01   1.00800           0
     13247 MEMB     93       DOPC     C25      CTL2    -0.180000       12.0110           0
     13248 MEMB     93       DOPC     H5R      HAL2     0.900000E-01   1.00800           0
     13249 MEMB     93       DOPC     H5S      HAL2     0.900000E-01   1.00800           0
     13250 MEMB     93       DOPC     C26      CTL2    -0.180000       12.0110           0
     13251 MEMB     93       DOPC     H6R      HAL2     0.900000E-01   1.00800           0
     13252 MEMB     93       DOPC     H6S      HAL2     0.900000E-01   1.00800           0
     13253 MEMB     93       DOPC     C27      CTL2    -0.180000       12.0110           0
     13254 MEMB     93       DOPC     H7R      HAL2     0.900000E-01   1.00800           0
     13255 MEMB     93       DOPC     H7S      HAL2     0.900000E-01   1.00800           0
     13256 MEMB     93       DOPC     C28      CTL2    -0.180000       12.0110           0
     13257 MEMB     93       DOPC     H8R      HAL2     0.900000E-01   1.00800           0
     13258 MEMB     93       DOPC     H8S      HAL2     0.900000E-01   1.00800           0
     13259 MEMB     93       DOPC     C29      CEL1    -0.150000       12.0110           0
     13260 MEMB     93       DOPC     H9R      HEL1     0.150000       1.00800           0
     13261 MEMB     93       DOPC     C210     CEL1    -0.150000       12.0110           0
     13262 MEMB     93       DOPC     H10R     HEL1     0.150000       1.00800           0
     13263 MEMB     93       DOPC     C211     CTL2    -0.180000       12.0110           0
     13264 MEMB     93       DOPC     H11R     HAL2     0.900000E-01   1.00800           0
     13265 MEMB     93       DOPC     H11S     HAL2     0.900000E-01   1.00800           0
     13266 MEMB     93       DOPC     C212     CTL2    -0.180000       12.0110           0
     13267 MEMB     93       DOPC     H12R     HAL2     0.900000E-01   1.00800           0
     13268 MEMB     93       DOPC     H12S     HAL2     0.900000E-01   1.00800           0
     13269 MEMB     93       DOPC     C213     CTL2    -0.180000       12.0110           0
     13270 MEMB     93       DOPC     H13R     HAL2     0.900000E-01   1.00800           0
     13271 MEMB     93       DOPC     H13S     HAL2     0.900000E-01   1.00800           0
     13272 MEMB     93       DOPC     C214     CTL2    -0.180000       12.0110           0
     13273 MEMB     93       DOPC     H14R     HAL2     0.900000E-01   1.00800           0
     13274 MEMB     93       DOPC     H14S     HAL2     0.900000E-01   1.00800           0
     13275 MEMB     93       DOPC     C215     CTL2    -0.180000       12.0110           0
     13276 MEMB     93       DOPC     H15R     HAL2     0.900000E-01   1.00800           0
     13277 MEMB     93       DOPC     H15S     HAL2     0.900000E-01   1.00800           0
     13278 MEMB     93       DOPC     C216     CTL2    -0.180000       12.0110           0
     13279 MEMB     93       DOPC     H16R     HAL2     0.900000E-01   1.00800           0
     13280 MEMB     93       DOPC     H16S     HAL2     0.900000E-01   1.00800           0
     13281 MEMB     93       DOPC     C217     CTL2    -0.180000       12.0110           0
     13282 MEMB     93       DOPC     H17R     HAL2     0.900000E-01   1.00800           0
     13283 MEMB     93       DOPC     H17S     HAL2     0.900000E-01   1.00800           0
     13284 MEMB     93       DOPC     C218     CTL3    -0.270000       12.0110           0
     13285 MEMB     93       DOPC     H18R     HAL3     0.900000E-01   1.00800           0
     13286 MEMB     93       DOPC     H18S     HAL3     0.900000E-01   1.00800           0
     13287 MEMB     93       DOPC     H18T     HAL3     0.900000E-01   1.00800           0
     13288 MEMB     93       DOPC     C33      CTL2    -0.180000       12.0110           0
     13289 MEMB     93       DOPC     H3X      HAL2     0.900000E-01   1.00800           0
     13290 MEMB     93       DOPC     H3Y      HAL2     0.900000E-01   1.00800           0
     13291 MEMB     93       DOPC     C34      CTL2    -0.180000       12.0110           0
     13292 MEMB     93       DOPC     H4X      HAL2     0.900000E-01   1.00800           0
     13293 MEMB     93       DOPC     H4Y      HAL2     0.900000E-01   1.00800           0
     13294 MEMB     93       DOPC     C35      CTL2    -0.180000       12.0110           0
     13295 MEMB     93       DOPC     H5X      HAL2     0.900000E-01   1.00800           0
     13296 MEMB     93       DOPC     H5Y      HAL2     0.900000E-01   1.00800           0
     13297 MEMB     93       DOPC     C36      CTL2    -0.180000       12.0110           0
     13298 MEMB     93       DOPC     H6X      HAL2     0.900000E-01   1.00800           0
     13299 MEMB     93       DOPC     H6Y      HAL2     0.900000E-01   1.00800           0
     13300 MEMB     93       DOPC     C37      CTL2    -0.180000       12.0110           0
     13301 MEMB     93       DOPC     H7X      HAL2     0.900000E-01   1.00800           0
     13302 MEMB     93       DOPC     H7Y      HAL2     0.900000E-01   1.00800           0
     13303 MEMB     93       DOPC     C38      CTL2    -0.180000       12.0110           0
     13304 MEMB     93       DOPC     H8X      HAL2     0.900000E-01   1.00800           0
     13305 MEMB     93       DOPC     H8Y      HAL2     0.900000E-01   1.00800           0
     13306 MEMB     93       DOPC     C39      CEL1    -0.150000       12.0110           0
     13307 MEMB     93       DOPC     H9X      HEL1     0.150000       1.00800           0
     13308 MEMB     93       DOPC     C310     CEL1    -0.150000       12.0110           0
     13309 MEMB     93       DOPC     H10X     HEL1     0.150000       1.00800           0
     13310 MEMB     93       DOPC     C311     CTL2    -0.180000       12.0110           0
     13311 MEMB     93       DOPC     H11X     HAL2     0.900000E-01   1.00800           0
     13312 MEMB     93       DOPC     H11Y     HAL2     0.900000E-01   1.00800           0
     13313 MEMB     93       DOPC     C312     CTL2    -0.180000       12.0110           0
     13314 MEMB     93       DOPC     H12X     HAL2     0.900000E-01   1.00800           0
     13315 MEMB     93       DOPC     H12Y     HAL2     0.900000E-01   1.00800           0
     13316 MEMB     93       DOPC     C313     CTL2    -0.180000       12.0110           0
     13317 MEMB     93       DOPC     H13X     HAL2     0.900000E-01   1.00800           0
     13318 MEMB     93       DOPC     H13Y     HAL2     0.900000E-01   1.00800           0
     13319 MEMB     93       DOPC     C314     CTL2    -0.180000       12.0110           0
     13320 MEMB     93       DOPC     H14X     HAL2     0.900000E-01   1.00800           0
     13321 MEMB     93       DOPC     H14Y     HAL2     0.900000E-01   1.00800           0
     13322 MEMB     93       DOPC     C315     CTL2    -0.180000       12.0110           0
     13323 MEMB     93       DOPC     H15X     HAL2     0.900000E-01   1.00800           0
     13324 MEMB     93       DOPC     H15Y     HAL2     0.900000E-01   1.00800           0
     13325 MEMB     93       DOPC     C316     CTL2    -0.180000       12.0110           0
     13326 MEMB     93       DOPC     H16X     HAL2     0.900000E-01   1.00800           0
     13327 MEMB     93       DOPC     H16Y     HAL2     0.900000E-01   1.00800           0
     13328 MEMB     93       DOPC     C317     CTL2    -0.180000       12.0110           0
     13329 MEMB     93       DOPC     H17X     HAL2     0.900000E-01   1.00800           0
     13330 MEMB     93       DOPC     H17Y     HAL2     0.900000E-01   1.00800           0
     13331 MEMB     93       DOPC     C318     CTL3    -0.270000       12.0110           0
     13332 MEMB     93       DOPC     H18X     HAL3     0.900000E-01   1.00800           0
     13333 MEMB     93       DOPC     H18Y     HAL3     0.900000E-01   1.00800           0
     13334 MEMB     93       DOPC     H18Z     HAL3     0.900000E-01   1.00800           0
     13335 MEMB     94       DOPC     N        NTL     -0.600000       14.0070           0
     13336 MEMB     94       DOPC     C12      CTL2    -0.100000       12.0110           0
     13337 MEMB     94       DOPC     H12A     HL       0.250000       1.00800           0
     13338 MEMB     94       DOPC     H12B     HL       0.250000       1.00800           0
     13339 MEMB     94       DOPC     C13      CTL5    -0.350000       12.0110           0
     13340 MEMB     94       DOPC     H13A     HL       0.250000       1.00800           0
     13341 MEMB     94       DOPC     H13B     HL       0.250000       1.00800           0
     13342 MEMB     94       DOPC     H13C     HL       0.250000       1.00800           0
     13343 MEMB     94       DOPC     C14      CTL5    -0.350000       12.0110           0
     13344 MEMB     94       DOPC     H14A     HL       0.250000       1.00800           0
     13345 MEMB     94       DOPC     H14B     HL       0.250000       1.00800           0
     13346 MEMB     94       DOPC     H14C     HL       0.250000       1.00800           0
     13347 MEMB     94       DOPC     C15      CTL5    -0.350000       12.0110           0
     13348 MEMB     94       DOPC     H15A     HL       0.250000       1.00800           0
     13349 MEMB     94       DOPC     H15B     HL       0.250000       1.00800           0
     13350 MEMB     94       DOPC     H15C     HL       0.250000       1.00800           0
     13351 MEMB     94       DOPC     C11      CTL2    -0.800000E-01   12.0110           0
     13352 MEMB     94       DOPC     H11A     HAL2     0.900000E-01   1.00800           0
     13353 MEMB     94       DOPC     H11B     HAL2     0.900000E-01   1.00800           0
     13354 MEMB     94       DOPC     P        PL        1.50000       30.9740           0
     13355 MEMB     94       DOPC     O13      O2L     -0.780000       15.9994           0
     13356 MEMB     94       DOPC     O14      O2L     -0.780000       15.9994           0
     13357 MEMB     94       DOPC     O12      OSLP    -0.570000       15.9994           0
     13358 MEMB     94       DOPC     O11      OSLP    -0.570000       15.9994           0
     13359 MEMB     94       DOPC     C1       CTL2    -0.800000E-01   12.0110           0
     13360 MEMB     94       DOPC     HA       HAL2     0.900000E-01   1.00800           0
     13361 MEMB     94       DOPC     HB       HAL2     0.900000E-01   1.00800           0
     13362 MEMB     94       DOPC     C2       CTL1     0.170000       12.0110           0
     13363 MEMB     94       DOPC     HS       HAL1     0.900000E-01   1.00800           0
     13364 MEMB     94       DOPC     O21      OSL     -0.490000       15.9994           0
     13365 MEMB     94       DOPC     C21      CL       0.900000       12.0110           0
     13366 MEMB     94       DOPC     O22      OBL     -0.630000       15.9994           0
     13367 MEMB     94       DOPC     C22      CTL2    -0.220000       12.0110           0
     13368 MEMB     94       DOPC     H2R      HAL2     0.900000E-01   1.00800           0
     13369 MEMB     94       DOPC     H2S      HAL2     0.900000E-01   1.00800           0
     13370 MEMB     94       DOPC     C3       CTL2     0.800000E-01   12.0110           0
     13371 MEMB     94       DOPC     HX       HAL2     0.900000E-01   1.00800           0
     13372 MEMB     94       DOPC     HY       HAL2     0.900000E-01   1.00800           0
     13373 MEMB     94       DOPC     O31      OSL     -0.490000       15.9994           0
     13374 MEMB     94       DOPC     C31      CL       0.900000       12.0110           0
     13375 MEMB     94       DOPC     O32      OBL     -0.630000       15.9994           0
     13376 MEMB     94       DOPC     C32      CTL2    -0.220000       12.0110           0
     13377 MEMB     94       DOPC     H2X      HAL2     0.900000E-01   1.00800           0
     13378 MEMB     94       DOPC     H2Y      HAL2     0.900000E-01   1.00800           0
     13379 MEMB     94       DOPC     C23      CTL2    -0.180000       12.0110           0
     13380 MEMB     94       DOPC     H3R      HAL2     0.900000E-01   1.00800           0
     13381 MEMB     94       DOPC     H3S      HAL2     0.900000E-01   1.00800           0
     13382 MEMB     94       DOPC     C24      CTL2    -0.180000       12.0110           0
     13383 MEMB     94       DOPC     H4R      HAL2     0.900000E-01   1.00800           0
     13384 MEMB     94       DOPC     H4S      HAL2     0.900000E-01   1.00800           0
     13385 MEMB     94       DOPC     C25      CTL2    -0.180000       12.0110           0
     13386 MEMB     94       DOPC     H5R      HAL2     0.900000E-01   1.00800           0
     13387 MEMB     94       DOPC     H5S      HAL2     0.900000E-01   1.00800           0
     13388 MEMB     94       DOPC     C26      CTL2    -0.180000       12.0110           0
     13389 MEMB     94       DOPC     H6R      HAL2     0.900000E-01   1.00800           0
     13390 MEMB     94       DOPC     H6S      HAL2     0.900000E-01   1.00800           0
     13391 MEMB     94       DOPC     C27      CTL2    -0.180000       12.0110           0
     13392 MEMB     94       DOPC     H7R      HAL2     0.900000E-01   1.00800           0
     13393 MEMB     94       DOPC     H7S      HAL2     0.900000E-01   1.00800           0
     13394 MEMB     94       DOPC     C28      CTL2    -0.180000       12.0110           0
     13395 MEMB     94       DOPC     H8R      HAL2     0.900000E-01   1.00800           0
     13396 MEMB     94       DOPC     H8S      HAL2     0.900000E-01   1.00800           0
     13397 MEMB     94       DOPC     C29      CEL1    -0.150000       12.0110           0
     13398 MEMB     94       DOPC     H9R      HEL1     0.150000       1.00800           0
     13399 MEMB     94       DOPC     C210     CEL1    -0.150000       12.0110           0
     13400 MEMB     94       DOPC     H10R     HEL1     0.150000       1.00800           0
     13401 MEMB     94       DOPC     C211     CTL2    -0.180000       12.0110           0
     13402 MEMB     94       DOPC     H11R     HAL2     0.900000E-01   1.00800           0
     13403 MEMB     94       DOPC     H11S     HAL2     0.900000E-01   1.00800           0
     13404 MEMB     94       DOPC     C212     CTL2    -0.180000       12.0110           0
     13405 MEMB     94       DOPC     H12R     HAL2     0.900000E-01   1.00800           0
     13406 MEMB     94       DOPC     H12S     HAL2     0.900000E-01   1.00800           0
     13407 MEMB     94       DOPC     C213     CTL2    -0.180000       12.0110           0
     13408 MEMB     94       DOPC     H13R     HAL2     0.900000E-01   1.00800           0
     13409 MEMB     94       DOPC     H13S     HAL2     0.900000E-01   1.00800           0
     13410 MEMB     94       DOPC     C214     CTL2    -0.180000       12.0110           0
     13411 MEMB     94       DOPC     H14R     HAL2     0.900000E-01   1.00800           0
     13412 MEMB     94       DOPC     H14S     HAL2     0.900000E-01   1.00800           0
     13413 MEMB     94       DOPC     C215     CTL2    -0.180000       12.0110           0
     13414 MEMB     94       DOPC     H15R     HAL2     0.900000E-01   1.00800           0
     13415 MEMB     94       DOPC     H15S     HAL2     0.900000E-01   1.00800           0
     13416 MEMB     94       DOPC     C216     CTL2    -0.180000       12.0110           0
     13417 MEMB     94       DOPC     H16R     HAL2     0.900000E-01   1.00800           0
     13418 MEMB     94       DOPC     H16S     HAL2     0.900000E-01   1.00800           0
     13419 MEMB     94       DOPC     C217     CTL2    -0.180000       12.0110           0
     13420 MEMB     94       DOPC     H17R     HAL2     0.900000E-01   1.00800           0
     13421 MEMB     94       DOPC     H17S     HAL2     0.900000E-01   1.00800           0
     13422 MEMB     94       DOPC     C218     CTL3    -0.270000       12.0110           0
     13423 MEMB     94       DOPC     H18R     HAL3     0.900000E-01   1.00800           0
     13424 MEMB     94       DOPC     H18S     HAL3     0.900000E-01   1.00800           0
     13425 MEMB     94       DOPC     H18T     HAL3     0.900000E-01   1.00800           0
     13426 MEMB     94       DOPC     C33      CTL2    -0.180000       12.0110           0
     13427 MEMB     94       DOPC     H3X      HAL2     0.900000E-01   1.00800           0
     13428 MEMB     94       DOPC     H3Y      HAL2     0.900000E-01   1.00800           0
     13429 MEMB     94       DOPC     C34      CTL2    -0.180000       12.0110           0
     13430 MEMB     94       DOPC     H4X      HAL2     0.900000E-01   1.00800           0
     13431 MEMB     94       DOPC     H4Y      HAL2     0.900000E-01   1.00800           0
     13432 MEMB     94       DOPC     C35      CTL2    -0.180000       12.0110           0
     13433 MEMB     94       DOPC     H5X      HAL2     0.900000E-01   1.00800           0
     13434 MEMB     94       DOPC     H5Y      HAL2     0.900000E-01   1.00800           0
     13435 MEMB     94       DOPC     C36      CTL2    -0.180000       12.0110           0
     13436 MEMB     94       DOPC     H6X      HAL2     0.900000E-01   1.00800           0
     13437 MEMB     94       DOPC     H6Y      HAL2     0.900000E-01   1.00800           0
     13438 MEMB     94       DOPC     C37      CTL2    -0.180000       12.0110           0
     13439 MEMB     94       DOPC     H7X      HAL2     0.900000E-01   1.00800           0
     13440 MEMB     94       DOPC     H7Y      HAL2     0.900000E-01   1.00800           0
     13441 MEMB     94       DOPC     C38      CTL2    -0.180000       12.0110           0
     13442 MEMB     94       DOPC     H8X      HAL2     0.900000E-01   1.00800           0
     13443 MEMB     94       DOPC     H8Y      HAL2     0.900000E-01   1.00800           0
     13444 MEMB     94       DOPC     C39      CEL1    -0.150000       12.0110           0
     13445 MEMB     94       DOPC     H9X      HEL1     0.150000       1.00800           0
     13446 MEMB     94       DOPC     C310     CEL1    -0.150000       12.0110           0
     13447 MEMB     94       DOPC     H10X     HEL1     0.150000       1.00800           0
     13448 MEMB     94       DOPC     C311     CTL2    -0.180000       12.0110           0
     13449 MEMB     94       DOPC     H11X     HAL2     0.900000E-01   1.00800           0
     13450 MEMB     94       DOPC     H11Y     HAL2     0.900000E-01   1.00800           0
     13451 MEMB     94       DOPC     C312     CTL2    -0.180000       12.0110           0
     13452 MEMB     94       DOPC     H12X     HAL2     0.900000E-01   1.00800           0
     13453 MEMB     94       DOPC     H12Y     HAL2     0.900000E-01   1.00800           0
     13454 MEMB     94       DOPC     C313     CTL2    -0.180000       12.0110           0
     13455 MEMB     94       DOPC     H13X     HAL2     0.900000E-01   1.00800           0
     13456 MEMB     94       DOPC     H13Y     HAL2     0.900000E-01   1.00800           0
     13457 MEMB     94       DOPC     C314     CTL2    -0.180000       12.0110           0
     13458 MEMB     94       DOPC     H14X     HAL2     0.900000E-01   1.00800           0
     13459 MEMB     94       DOPC     H14Y     HAL2     0.900000E-01   1.00800           0
     13460 MEMB     94       DOPC     C315     CTL2    -0.180000       12.0110           0
     13461 MEMB     94       DOPC     H15X     HAL2     0.900000E-01   1.00800           0
     13462 MEMB     94       DOPC     H15Y     HAL2     0.900000E-01   1.00800           0
     13463 MEMB     94       DOPC     C316     CTL2    -0.180000       12.0110           0
     13464 MEMB     94       DOPC     H16X     HAL2     0.900000E-01   1.00800           0
     13465 MEMB     94       DOPC     H16Y     HAL2     0.900000E-01   1.00800           0
     13466 MEMB     94       DOPC     C317     CTL2    -0.180000       12.0110           0
     13467 MEMB     94       DOPC     H17X     HAL2     0.900000E-01   1.00800           0
     13468 MEMB     94       DOPC     H17Y     HAL2     0.900000E-01   1.00800           0
     13469 MEMB     94       DOPC     C318     CTL3    -0.270000       12.0110           0
     13470 MEMB     94       DOPC     H18X     HAL3     0.900000E-01   1.00800           0
     13471 MEMB     94       DOPC     H18Y     HAL3     0.900000E-01   1.00800           0
     13472 MEMB     94       DOPC     H18Z     HAL3     0.900000E-01   1.00800           0
     13473 MEMB     95       DOPC     N        NTL     -0.600000       14.0070           0
     13474 MEMB     95       DOPC     C12      CTL2    -0.100000       12.0110           0
     13475 MEMB     95       DOPC     H12A     HL       0.250000       1.00800           0
     13476 MEMB     95       DOPC     H12B     HL       0.250000       1.00800           0
     13477 MEMB     95       DOPC     C13      CTL5    -0.350000       12.0110           0
     13478 MEMB     95       DOPC     H13A     HL       0.250000       1.00800           0
     13479 MEMB     95       DOPC     H13B     HL       0.250000       1.00800           0
     13480 MEMB     95       DOPC     H13C     HL       0.250000       1.00800           0
     13481 MEMB     95       DOPC     C14      CTL5    -0.350000       12.0110           0
     13482 MEMB     95       DOPC     H14A     HL       0.250000       1.00800           0
     13483 MEMB     95       DOPC     H14B     HL       0.250000       1.00800           0
     13484 MEMB     95       DOPC     H14C     HL       0.250000       1.00800           0
     13485 MEMB     95       DOPC     C15      CTL5    -0.350000       12.0110           0
     13486 MEMB     95       DOPC     H15A     HL       0.250000       1.00800           0
     13487 MEMB     95       DOPC     H15B     HL       0.250000       1.00800           0
     13488 MEMB     95       DOPC     H15C     HL       0.250000       1.00800           0
     13489 MEMB     95       DOPC     C11      CTL2    -0.800000E-01   12.0110           0
     13490 MEMB     95       DOPC     H11A     HAL2     0.900000E-01   1.00800           0
     13491 MEMB     95       DOPC     H11B     HAL2     0.900000E-01   1.00800           0
     13492 MEMB     95       DOPC     P        PL        1.50000       30.9740           0
     13493 MEMB     95       DOPC     O13      O2L     -0.780000       15.9994           0
     13494 MEMB     95       DOPC     O14      O2L     -0.780000       15.9994           0
     13495 MEMB     95       DOPC     O12      OSLP    -0.570000       15.9994           0
     13496 MEMB     95       DOPC     O11      OSLP    -0.570000       15.9994           0
     13497 MEMB     95       DOPC     C1       CTL2    -0.800000E-01   12.0110           0
     13498 MEMB     95       DOPC     HA       HAL2     0.900000E-01   1.00800           0
     13499 MEMB     95       DOPC     HB       HAL2     0.900000E-01   1.00800           0
     13500 MEMB     95       DOPC     C2       CTL1     0.170000       12.0110           0
     13501 MEMB     95       DOPC     HS       HAL1     0.900000E-01   1.00800           0
     13502 MEMB     95       DOPC     O21      OSL     -0.490000       15.9994           0
     13503 MEMB     95       DOPC     C21      CL       0.900000       12.0110           0
     13504 MEMB     95       DOPC     O22      OBL     -0.630000       15.9994           0
     13505 MEMB     95       DOPC     C22      CTL2    -0.220000       12.0110           0
     13506 MEMB     95       DOPC     H2R      HAL2     0.900000E-01   1.00800           0
     13507 MEMB     95       DOPC     H2S      HAL2     0.900000E-01   1.00800           0
     13508 MEMB     95       DOPC     C3       CTL2     0.800000E-01   12.0110           0
     13509 MEMB     95       DOPC     HX       HAL2     0.900000E-01   1.00800           0
     13510 MEMB     95       DOPC     HY       HAL2     0.900000E-01   1.00800           0
     13511 MEMB     95       DOPC     O31      OSL     -0.490000       15.9994           0
     13512 MEMB     95       DOPC     C31      CL       0.900000       12.0110           0
     13513 MEMB     95       DOPC     O32      OBL     -0.630000       15.9994           0
     13514 MEMB     95       DOPC     C32      CTL2    -0.220000       12.0110           0
     13515 MEMB     95       DOPC     H2X      HAL2     0.900000E-01   1.00800           0
     13516 MEMB     95       DOPC     H2Y      HAL2     0.900000E-01   1.00800           0
     13517 MEMB     95       DOPC     C23      CTL2    -0.180000       12.0110           0
     13518 MEMB     95       DOPC     H3R      HAL2     0.900000E-01   1.00800           0
     13519 MEMB     95       DOPC     H3S      HAL2     0.900000E-01   1.00800           0
     13520 MEMB     95       DOPC     C24      CTL2    -0.180000       12.0110           0
     13521 MEMB     95       DOPC     H4R      HAL2     0.900000E-01   1.00800           0
     13522 MEMB     95       DOPC     H4S      HAL2     0.900000E-01   1.00800           0
     13523 MEMB     95       DOPC     C25      CTL2    -0.180000       12.0110           0
     13524 MEMB     95       DOPC     H5R      HAL2     0.900000E-01   1.00800           0
     13525 MEMB     95       DOPC     H5S      HAL2     0.900000E-01   1.00800           0
     13526 MEMB     95       DOPC     C26      CTL2    -0.180000       12.0110           0
     13527 MEMB     95       DOPC     H6R      HAL2     0.900000E-01   1.00800           0
     13528 MEMB     95       DOPC     H6S      HAL2     0.900000E-01   1.00800           0
     13529 MEMB     95       DOPC     C27      CTL2    -0.180000       12.0110           0
     13530 MEMB     95       DOPC     H7R      HAL2     0.900000E-01   1.00800           0
     13531 MEMB     95       DOPC     H7S      HAL2     0.900000E-01   1.00800           0
     13532 MEMB     95       DOPC     C28      CTL2    -0.180000       12.0110           0
     13533 MEMB     95       DOPC     H8R      HAL2     0.900000E-01   1.00800           0
     13534 MEMB     95       DOPC     H8S      HAL2     0.900000E-01   1.00800           0
     13535 MEMB     95       DOPC     C29      CEL1    -0.150000       12.0110           0
     13536 MEMB     95       DOPC     H9R      HEL1     0.150000       1.00800           0
     13537 MEMB     95       DOPC     C210     CEL1    -0.150000       12.0110           0
     13538 MEMB     95       DOPC     H10R     HEL1     0.150000       1.00800           0
     13539 MEMB     95       DOPC     C211     CTL2    -0.180000       12.0110           0
     13540 MEMB     95       DOPC     H11R     HAL2     0.900000E-01   1.00800           0
     13541 MEMB     95       DOPC     H11S     HAL2     0.900000E-01   1.00800           0
     13542 MEMB     95       DOPC     C212     CTL2    -0.180000       12.0110           0
     13543 MEMB     95       DOPC     H12R     HAL2     0.900000E-01   1.00800           0
     13544 MEMB     95       DOPC     H12S     HAL2     0.900000E-01   1.00800           0
     13545 MEMB     95       DOPC     C213     CTL2    -0.180000       12.0110           0
     13546 MEMB     95       DOPC     H13R     HAL2     0.900000E-01   1.00800           0
     13547 MEMB     95       DOPC     H13S     HAL2     0.900000E-01   1.00800           0
     13548 MEMB     95       DOPC     C214     CTL2    -0.180000       12.0110           0
     13549 MEMB     95       DOPC     H14R     HAL2     0.900000E-01   1.00800           0
     13550 MEMB     95       DOPC     H14S     HAL2     0.900000E-01   1.00800           0
     13551 MEMB     95       DOPC     C215     CTL2    -0.180000       12.0110           0
     13552 MEMB     95       DOPC     H15R     HAL2     0.900000E-01   1.00800           0
     13553 MEMB     95       DOPC     H15S     HAL2     0.900000E-01   1.00800           0
     13554 MEMB     95       DOPC     C216     CTL2    -0.180000       12.0110           0
     13555 MEMB     95       DOPC     H16R     HAL2     0.900000E-01   1.00800           0
     13556 MEMB     95       DOPC     H16S     HAL2     0.900000E-01   1.00800           0
     13557 MEMB     95       DOPC     C217     CTL2    -0.180000       12.0110           0
     13558 MEMB     95       DOPC     H17R     HAL2     0.900000E-01   1.00800           0
     13559 MEMB     95       DOPC     H17S     HAL2     0.900000E-01   1.00800           0
     13560 MEMB     95       DOPC     C218     CTL3    -0.270000       12.0110           0
     13561 MEMB     95       DOPC     H18R     HAL3     0.900000E-01   1.00800           0
     13562 MEMB     95       DOPC     H18S     HAL3     0.900000E-01   1.00800           0
     13563 MEMB     95       DOPC     H18T     HAL3     0.900000E-01   1.00800           0
     13564 MEMB     95       DOPC     C33      CTL2    -0.180000       12.0110           0
     13565 MEMB     95       DOPC     H3X      HAL2     0.900000E-01   1.00800           0
     13566 MEMB     95       DOPC     H3Y      HAL2     0.900000E-01   1.00800           0
     13567 MEMB     95       DOPC     C34      CTL2    -0.180000       12.0110           0
     13568 MEMB     95       DOPC     H4X      HAL2     0.900000E-01   1.00800           0
     13569 MEMB     95       DOPC     H4Y      HAL2     0.900000E-01   1.00800           0
     13570 MEMB     95       DOPC     C35      CTL2    -0.180000       12.0110           0
     13571 MEMB     95       DOPC     H5X      HAL2     0.900000E-01   1.00800           0
     13572 MEMB     95       DOPC     H5Y      HAL2     0.900000E-01   1.00800           0
     13573 MEMB     95       DOPC     C36      CTL2    -0.180000       12.0110           0
     13574 MEMB     95       DOPC     H6X      HAL2     0.900000E-01   1.00800           0
     13575 MEMB     95       DOPC     H6Y      HAL2     0.900000E-01   1.00800           0
     13576 MEMB     95       DOPC     C37      CTL2    -0.180000       12.0110           0
     13577 MEMB     95       DOPC     H7X      HAL2     0.900000E-01   1.00800           0
     13578 MEMB     95       DOPC     H7Y      HAL2     0.900000E-01   1.00800           0
     13579 MEMB     95       DOPC     C38      CTL2    -0.180000       12.0110           0
     13580 MEMB     95       DOPC     H8X      HAL2     0.900000E-01   1.00800           0
     13581 MEMB     95       DOPC     H8Y      HAL2     0.900000E-01   1.00800           0
     13582 MEMB     95       DOPC     C39      CEL1    -0.150000       12.0110           0
     13583 MEMB     95       DOPC     H9X      HEL1     0.150000       1.00800           0
     13584 MEMB     95       DOPC     C310     CEL1    -0.150000       12.0110           0
     13585 MEMB     95       DOPC     H10X     HEL1     0.150000       1.00800           0
     13586 MEMB     95       DOPC     C311     CTL2    -0.180000       12.0110           0
     13587 MEMB     95       DOPC     H11X     HAL2     0.900000E-01   1.00800           0
     13588 MEMB     95       DOPC     H11Y     HAL2     0.900000E-01   1.00800           0
     13589 MEMB     95       DOPC     C312     CTL2    -0.180000       12.0110           0
     13590 MEMB     95       DOPC     H12X     HAL2     0.900000E-01   1.00800           0
     13591 MEMB     95       DOPC     H12Y     HAL2     0.900000E-01   1.00800           0
     13592 MEMB     95       DOPC     C313     CTL2    -0.180000       12.0110           0
     13593 MEMB     95       DOPC     H13X     HAL2     0.900000E-01   1.00800           0
     13594 MEMB     95       DOPC     H13Y     HAL2     0.900000E-01   1.00800           0
     13595 MEMB     95       DOPC     C314     CTL2    -0.180000       12.0110           0
     13596 MEMB     95       DOPC     H14X     HAL2     0.900000E-01   1.00800           0
     13597 MEMB     95       DOPC     H14Y     HAL2     0.900000E-01   1.00800           0
     13598 MEMB     95       DOPC     C315     CTL2    -0.180000       12.0110           0
     13599 MEMB     95       DOPC     H15X     HAL2     0.900000E-01   1.00800           0
     13600 MEMB     95       DOPC     H15Y     HAL2     0.900000E-01   1.00800           0
     13601 MEMB     95       DOPC     C316     CTL2    -0.180000       12.0110           0
     13602 MEMB     95       DOPC     H16X     HAL2     0.900000E-01   1.00800           0
     13603 MEMB     95       DOPC     H16Y     HAL2     0.900000E-01   1.00800           0
     13604 MEMB     95       DOPC     C317     CTL2    -0.180000       12.0110           0
     13605 MEMB     95       DOPC     H17X     HAL2     0.900000E-01   1.00800           0
     13606 MEMB     95       DOPC     H17Y     HAL2     0.900000E-01   1.00800           0
     13607 MEMB     95       DOPC     C318     CTL3    -0.270000       12.0110           0
     13608 MEMB     95       DOPC     H18X     HAL3     0.900000E-01   1.00800           0
     13609 MEMB     95       DOPC     H18Y     HAL3     0.900000E-01   1.00800           0
     13610 MEMB     95       DOPC     H18Z     HAL3     0.900000E-01   1.00800           0
     13611 MEMB     96       DOPC     N        NTL     -0.600000       14.0070           0
     13612 MEMB     96       DOPC     C12      CTL2    -0.100000       12.0110           0
     13613 MEMB     96       DOPC     H12A     HL       0.250000       1.00800           0
     13614 MEMB     96       DOPC     H12B     HL       0.250000       1.00800           0
     13615 MEMB     96       DOPC     C13      CTL5    -0.350000       12.0110           0
     13616 MEMB     96       DOPC     H13A     HL       0.250000       1.00800           0
     13617 MEMB     96       DOPC     H13B     HL       0.250000       1.00800           0
     13618 MEMB     96       DOPC     H13C     HL       0.250000       1.00800           0
     13619 MEMB     96       DOPC     C14      CTL5    -0.350000       12.0110           0
     13620 MEMB     96       DOPC     H14A     HL       0.250000       1.00800           0
     13621 MEMB     96       DOPC     H14B     HL       0.250000       1.00800           0
     13622 MEMB     96       DOPC     H14C     HL       0.250000       1.00800           0
     13623 MEMB     96       DOPC     C15      CTL5    -0.350000       12.0110           0
     13624 MEMB     96       DOPC     H15A     HL       0.250000       1.00800           0
     13625 MEMB     96       DOPC     H15B     HL       0.250000       1.00800           0
     13626 MEMB     96       DOPC     H15C     HL       0.250000       1.00800           0
     13627 MEMB     96       DOPC     C11      CTL2    -0.800000E-01   12.0110           0
     13628 MEMB     96       DOPC     H11A     HAL2     0.900000E-01   1.00800           0
     13629 MEMB     96       DOPC     H11B     HAL2     0.900000E-01   1.00800           0
     13630 MEMB     96       DOPC     P        PL        1.50000       30.9740           0
     13631 MEMB     96       DOPC     O13      O2L     -0.780000       15.9994           0
     13632 MEMB     96       DOPC     O14      O2L     -0.780000       15.9994           0
     13633 MEMB     96       DOPC     O12      OSLP    -0.570000       15.9994           0
     13634 MEMB     96       DOPC     O11      OSLP    -0.570000       15.9994           0
     13635 MEMB     96       DOPC     C1       CTL2    -0.800000E-01   12.0110           0
     13636 MEMB     96       DOPC     HA       HAL2     0.900000E-01   1.00800           0
     13637 MEMB     96       DOPC     HB       HAL2     0.900000E-01   1.00800           0
     13638 MEMB     96       DOPC     C2       CTL1     0.170000       12.0110           0
     13639 MEMB     96       DOPC     HS       HAL1     0.900000E-01   1.00800           0
     13640 MEMB     96       DOPC     O21      OSL     -0.490000       15.9994           0
     13641 MEMB     96       DOPC     C21      CL       0.900000       12.0110           0
     13642 MEMB     96       DOPC     O22      OBL     -0.630000       15.9994           0
     13643 MEMB     96       DOPC     C22      CTL2    -0.220000       12.0110           0
     13644 MEMB     96       DOPC     H2R      HAL2     0.900000E-01   1.00800           0
     13645 MEMB     96       DOPC     H2S      HAL2     0.900000E-01   1.00800           0
     13646 MEMB     96       DOPC     C3       CTL2     0.800000E-01   12.0110           0
     13647 MEMB     96       DOPC     HX       HAL2     0.900000E-01   1.00800           0
     13648 MEMB     96       DOPC     HY       HAL2     0.900000E-01   1.00800           0
     13649 MEMB     96       DOPC     O31      OSL     -0.490000       15.9994           0
     13650 MEMB     96       DOPC     C31      CL       0.900000       12.0110           0
     13651 MEMB     96       DOPC     O32      OBL     -0.630000       15.9994           0
     13652 MEMB     96       DOPC     C32      CTL2    -0.220000       12.0110           0
     13653 MEMB     96       DOPC     H2X      HAL2     0.900000E-01   1.00800           0
     13654 MEMB     96       DOPC     H2Y      HAL2     0.900000E-01   1.00800           0
     13655 MEMB     96       DOPC     C23      CTL2    -0.180000       12.0110           0
     13656 MEMB     96       DOPC     H3R      HAL2     0.900000E-01   1.00800           0
     13657 MEMB     96       DOPC     H3S      HAL2     0.900000E-01   1.00800           0
     13658 MEMB     96       DOPC     C24      CTL2    -0.180000       12.0110           0
     13659 MEMB     96       DOPC     H4R      HAL2     0.900000E-01   1.00800           0
     13660 MEMB     96       DOPC     H4S      HAL2     0.900000E-01   1.00800           0
     13661 MEMB     96       DOPC     C25      CTL2    -0.180000       12.0110           0
     13662 MEMB     96       DOPC     H5R      HAL2     0.900000E-01   1.00800           0
     13663 MEMB     96       DOPC     H5S      HAL2     0.900000E-01   1.00800           0
     13664 MEMB     96       DOPC     C26      CTL2    -0.180000       12.0110           0
     13665 MEMB     96       DOPC     H6R      HAL2     0.900000E-01   1.00800           0
     13666 MEMB     96       DOPC     H6S      HAL2     0.900000E-01   1.00800           0
     13667 MEMB     96       DOPC     C27      CTL2    -0.180000       12.0110           0
     13668 MEMB     96       DOPC     H7R      HAL2     0.900000E-01   1.00800           0
     13669 MEMB     96       DOPC     H7S      HAL2     0.900000E-01   1.00800           0
     13670 MEMB     96       DOPC     C28      CTL2    -0.180000       12.0110           0
     13671 MEMB     96       DOPC     H8R      HAL2     0.900000E-01   1.00800           0
     13672 MEMB     96       DOPC     H8S      HAL2     0.900000E-01   1.00800           0
     13673 MEMB     96       DOPC     C29      CEL1    -0.150000       12.0110           0
     13674 MEMB     96       DOPC     H9R      HEL1     0.150000       1.00800           0
     13675 MEMB     96       DOPC     C210     CEL1    -0.150000       12.0110           0
     13676 MEMB     96       DOPC     H10R     HEL1     0.150000       1.00800           0
     13677 MEMB     96       DOPC     C211     CTL2    -0.180000       12.0110           0
     13678 MEMB     96       DOPC     H11R     HAL2     0.900000E-01   1.00800           0
     13679 MEMB     96       DOPC     H11S     HAL2     0.900000E-01   1.00800           0
     13680 MEMB     96       DOPC     C212     CTL2    -0.180000       12.0110           0
     13681 MEMB     96       DOPC     H12R     HAL2     0.900000E-01   1.00800           0
     13682 MEMB     96       DOPC     H12S     HAL2     0.900000E-01   1.00800           0
     13683 MEMB     96       DOPC     C213     CTL2    -0.180000       12.0110           0
     13684 MEMB     96       DOPC     H13R     HAL2     0.900000E-01   1.00800           0
     13685 MEMB     96       DOPC     H13S     HAL2     0.900000E-01   1.00800           0
     13686 MEMB     96       DOPC     C214     CTL2    -0.180000       12.0110           0
     13687 MEMB     96       DOPC     H14R     HAL2     0.900000E-01   1.00800           0
     13688 MEMB     96       DOPC     H14S     HAL2     0.900000E-01   1.00800           0
     13689 MEMB     96       DOPC     C215     CTL2    -0.180000       12.0110           0
     13690 MEMB     96       DOPC     H15R     HAL2     0.900000E-01   1.00800           0
     13691 MEMB     96       DOPC     H15S     HAL2     0.900000E-01   1.00800           0
     13692 MEMB     96       DOPC     C216     CTL2    -0.180000       12.0110           0
     13693 MEMB     96       DOPC     H16R     HAL2     0.900000E-01   1.00800           0
     13694 MEMB     96       DOPC     H16S     HAL2     0.900000E-01   1.00800           0
     13695 MEMB     96       DOPC     C217     CTL2    -0.180000       12.0110           0
     13696 MEMB     96       DOPC     H17R     HAL2     0.900000E-01   1.00800           0
     13697 MEMB     96       DOPC     H17S     HAL2     0.900000E-01   1.00800           0
     13698 MEMB     96       DOPC     C218     CTL3    -0.270000       12.0110           0
     13699 MEMB     96       DOPC     H18R     HAL3     0.900000E-01   1.00800           0
     13700 MEMB     96       DOPC     H18S     HAL3     0.900000E-01   1.00800           0
     13701 MEMB     96       DOPC     H18T     HAL3     0.900000E-01   1.00800           0
     13702 MEMB     96       DOPC     C33      CTL2    -0.180000       12.0110           0
     13703 MEMB     96       DOPC     H3X      HAL2     0.900000E-01   1.00800           0
     13704 MEMB     96       DOPC     H3Y      HAL2     0.900000E-01   1.00800           0
     13705 MEMB     96       DOPC     C34      CTL2    -0.180000       12.0110           0
     13706 MEMB     96       DOPC     H4X      HAL2     0.900000E-01   1.00800           0
     13707 MEMB     96       DOPC     H4Y      HAL2     0.900000E-01   1.00800           0
     13708 MEMB     96       DOPC     C35      CTL2    -0.180000       12.0110           0
     13709 MEMB     96       DOPC     H5X      HAL2     0.900000E-01   1.00800           0
     13710 MEMB     96       DOPC     H5Y      HAL2     0.900000E-01   1.00800           0
     13711 MEMB     96       DOPC     C36      CTL2    -0.180000       12.0110           0
     13712 MEMB     96       DOPC     H6X      HAL2     0.900000E-01   1.00800           0
     13713 MEMB     96       DOPC     H6Y      HAL2     0.900000E-01   1.00800           0
     13714 MEMB     96       DOPC     C37      CTL2    -0.180000       12.0110           0
     13715 MEMB     96       DOPC     H7X      HAL2     0.900000E-01   1.00800           0
     13716 MEMB     96       DOPC     H7Y      HAL2     0.900000E-01   1.00800           0
     13717 MEMB     96       DOPC     C38      CTL2    -0.180000       12.0110           0
     13718 MEMB     96       DOPC     H8X      HAL2     0.900000E-01   1.00800           0
     13719 MEMB     96       DOPC     H8Y      HAL2     0.900000E-01   1.00800           0
     13720 MEMB     96       DOPC     C39      CEL1    -0.150000       12.0110           0
     13721 MEMB     96       DOPC     H9X      HEL1     0.150000       1.00800           0
     13722 MEMB     96       DOPC     C310     CEL1    -0.150000       12.0110           0
     13723 MEMB     96       DOPC     H10X     HEL1     0.150000       1.00800           0
     13724 MEMB     96       DOPC     C311     CTL2    -0.180000       12.0110           0
     13725 MEMB     96       DOPC     H11X     HAL2     0.900000E-01   1.00800           0
     13726 MEMB     96       DOPC     H11Y     HAL2     0.900000E-01   1.00800           0
     13727 MEMB     96       DOPC     C312     CTL2    -0.180000       12.0110           0
     13728 MEMB     96       DOPC     H12X     HAL2     0.900000E-01   1.00800           0
     13729 MEMB     96       DOPC     H12Y     HAL2     0.900000E-01   1.00800           0
     13730 MEMB     96       DOPC     C313     CTL2    -0.180000       12.0110           0
     13731 MEMB     96       DOPC     H13X     HAL2     0.900000E-01   1.00800           0
     13732 MEMB     96       DOPC     H13Y     HAL2     0.900000E-01   1.00800           0
     13733 MEMB     96       DOPC     C314     CTL2    -0.180000       12.0110           0
     13734 MEMB     96       DOPC     H14X     HAL2     0.900000E-01   1.00800           0
     13735 MEMB     96       DOPC     H14Y     HAL2     0.900000E-01   1.00800           0
     13736 MEMB     96       DOPC     C315     CTL2    -0.180000       12.0110           0
     13737 MEMB     96       DOPC     H15X     HAL2     0.900000E-01   1.00800           0
     13738 MEMB     96       DOPC     H15Y     HAL2     0.900000E-01   1.00800           0
     13739 MEMB     96       DOPC     C316     CTL2    -0.180000       12.0110           0
     13740 MEMB     96       DOPC     H16X     HAL2     0.900000E-01   1.00800           0
     13741 MEMB     96       DOPC     H16Y     HAL2     0.900000E-01   1.00800           0
     13742 MEMB     96       DOPC     C317     CTL2    -0.180000       12.0110           0
     13743 MEMB     96       DOPC     H17X     HAL2     0.900000E-01   1.00800           0
     13744 MEMB     96       DOPC     H17Y     HAL2     0.900000E-01   1.00800           0
     13745 MEMB     96       DOPC     C318     CTL3    -0.270000       12.0110           0
     13746 MEMB     96       DOPC     H18X     HAL3     0.900000E-01   1.00800           0
     13747 MEMB     96       DOPC     H18Y     HAL3     0.900000E-01   1.00800           0
     13748 MEMB     96       DOPC     H18Z     HAL3     0.900000E-01   1.00800           0
     13749 MEMB     97       DOPC     N        NTL     -0.600000       14.0070           0
     13750 MEMB     97       DOPC     C12      CTL2    -0.100000       12.0110           0
     13751 MEMB     97       DOPC     H12A     HL       0.250000       1.00800           0
     13752 MEMB     97       DOPC     H12B     HL       0.250000       1.00800           0
     13753 MEMB     97       DOPC     C13      CTL5    -0.350000       12.0110           0
     13754 MEMB     97       DOPC     H13A     HL       0.250000       1.00800           0
     13755 MEMB     97       DOPC     H13B     HL       0.250000       1.00800           0
     13756 MEMB     97       DOPC     H13C     HL       0.250000       1.00800           0
     13757 MEMB     97       DOPC     C14      CTL5    -0.350000       12.0110           0
     13758 MEMB     97       DOPC     H14A     HL       0.250000       1.00800           0
     13759 MEMB     97       DOPC     H14B     HL       0.250000       1.00800           0
     13760 MEMB     97       DOPC     H14C     HL       0.250000       1.00800           0
     13761 MEMB     97       DOPC     C15      CTL5    -0.350000       12.0110           0
     13762 MEMB     97       DOPC     H15A     HL       0.250000       1.00800           0
     13763 MEMB     97       DOPC     H15B     HL       0.250000       1.00800           0
     13764 MEMB     97       DOPC     H15C     HL       0.250000       1.00800           0
     13765 MEMB     97       DOPC     C11      CTL2    -0.800000E-01   12.0110           0
     13766 MEMB     97       DOPC     H11A     HAL2     0.900000E-01   1.00800           0
     13767 MEMB     97       DOPC     H11B     HAL2     0.900000E-01   1.00800           0
     13768 MEMB     97       DOPC     P        PL        1.50000       30.9740           0
     13769 MEMB     97       DOPC     O13      O2L     -0.780000       15.9994           0
     13770 MEMB     97       DOPC     O14      O2L     -0.780000       15.9994           0
     13771 MEMB     97       DOPC     O12      OSLP    -0.570000       15.9994           0
     13772 MEMB     97       DOPC     O11      OSLP    -0.570000       15.9994           0
     13773 MEMB     97       DOPC     C1       CTL2    -0.800000E-01   12.0110           0
     13774 MEMB     97       DOPC     HA       HAL2     0.900000E-01   1.00800           0
     13775 MEMB     97       DOPC     HB       HAL2     0.900000E-01   1.00800           0
     13776 MEMB     97       DOPC     C2       CTL1     0.170000       12.0110           0
     13777 MEMB     97       DOPC     HS       HAL1     0.900000E-01   1.00800           0
     13778 MEMB     97       DOPC     O21      OSL     -0.490000       15.9994           0
     13779 MEMB     97       DOPC     C21      CL       0.900000       12.0110           0
     13780 MEMB     97       DOPC     O22      OBL     -0.630000       15.9994           0
     13781 MEMB     97       DOPC     C22      CTL2    -0.220000       12.0110           0
     13782 MEMB     97       DOPC     H2R      HAL2     0.900000E-01   1.00800           0
     13783 MEMB     97       DOPC     H2S      HAL2     0.900000E-01   1.00800           0
     13784 MEMB     97       DOPC     C3       CTL2     0.800000E-01   12.0110           0
     13785 MEMB     97       DOPC     HX       HAL2     0.900000E-01   1.00800           0
     13786 MEMB     97       DOPC     HY       HAL2     0.900000E-01   1.00800           0
     13787 MEMB     97       DOPC     O31      OSL     -0.490000       15.9994           0
     13788 MEMB     97       DOPC     C31      CL       0.900000       12.0110           0
     13789 MEMB     97       DOPC     O32      OBL     -0.630000       15.9994           0
     13790 MEMB     97       DOPC     C32      CTL2    -0.220000       12.0110           0
     13791 MEMB     97       DOPC     H2X      HAL2     0.900000E-01   1.00800           0
     13792 MEMB     97       DOPC     H2Y      HAL2     0.900000E-01   1.00800           0
     13793 MEMB     97       DOPC     C23      CTL2    -0.180000       12.0110           0
     13794 MEMB     97       DOPC     H3R      HAL2     0.900000E-01   1.00800           0
     13795 MEMB     97       DOPC     H3S      HAL2     0.900000E-01   1.00800           0
     13796 MEMB     97       DOPC     C24      CTL2    -0.180000       12.0110           0
     13797 MEMB     97       DOPC     H4R      HAL2     0.900000E-01   1.00800           0
     13798 MEMB     97       DOPC     H4S      HAL2     0.900000E-01   1.00800           0
     13799 MEMB     97       DOPC     C25      CTL2    -0.180000       12.0110           0
     13800 MEMB     97       DOPC     H5R      HAL2     0.900000E-01   1.00800           0
     13801 MEMB     97       DOPC     H5S      HAL2     0.900000E-01   1.00800           0
     13802 MEMB     97       DOPC     C26      CTL2    -0.180000       12.0110           0
     13803 MEMB     97       DOPC     H6R      HAL2     0.900000E-01   1.00800           0
     13804 MEMB     97       DOPC     H6S      HAL2     0.900000E-01   1.00800           0
     13805 MEMB     97       DOPC     C27      CTL2    -0.180000       12.0110           0
     13806 MEMB     97       DOPC     H7R      HAL2     0.900000E-01   1.00800           0
     13807 MEMB     97       DOPC     H7S      HAL2     0.900000E-01   1.00800           0
     13808 MEMB     97       DOPC     C28      CTL2    -0.180000       12.0110           0
     13809 MEMB     97       DOPC     H8R      HAL2     0.900000E-01   1.00800           0
     13810 MEMB     97       DOPC     H8S      HAL2     0.900000E-01   1.00800           0
     13811 MEMB     97       DOPC     C29      CEL1    -0.150000       12.0110           0
     13812 MEMB     97       DOPC     H9R      HEL1     0.150000       1.00800           0
     13813 MEMB     97       DOPC     C210     CEL1    -0.150000       12.0110           0
     13814 MEMB     97       DOPC     H10R     HEL1     0.150000       1.00800           0
     13815 MEMB     97       DOPC     C211     CTL2    -0.180000       12.0110           0
     13816 MEMB     97       DOPC     H11R     HAL2     0.900000E-01   1.00800           0
     13817 MEMB     97       DOPC     H11S     HAL2     0.900000E-01   1.00800           0
     13818 MEMB     97       DOPC     C212     CTL2    -0.180000       12.0110           0
     13819 MEMB     97       DOPC     H12R     HAL2     0.900000E-01   1.00800           0
     13820 MEMB     97       DOPC     H12S     HAL2     0.900000E-01   1.00800           0
     13821 MEMB     97       DOPC     C213     CTL2    -0.180000       12.0110           0
     13822 MEMB     97       DOPC     H13R     HAL2     0.900000E-01   1.00800           0
     13823 MEMB     97       DOPC     H13S     HAL2     0.900000E-01   1.00800           0
     13824 MEMB     97       DOPC     C214     CTL2    -0.180000       12.0110           0
     13825 MEMB     97       DOPC     H14R     HAL2     0.900000E-01   1.00800           0
     13826 MEMB     97       DOPC     H14S     HAL2     0.900000E-01   1.00800           0
     13827 MEMB     97       DOPC     C215     CTL2    -0.180000       12.0110           0
     13828 MEMB     97       DOPC     H15R     HAL2     0.900000E-01   1.00800           0
     13829 MEMB     97       DOPC     H15S     HAL2     0.900000E-01   1.00800           0
     13830 MEMB     97       DOPC     C216     CTL2    -0.180000       12.0110           0
     13831 MEMB     97       DOPC     H16R     HAL2     0.900000E-01   1.00800           0
     13832 MEMB     97       DOPC     H16S     HAL2     0.900000E-01   1.00800           0
     13833 MEMB     97       DOPC     C217     CTL2    -0.180000       12.0110           0
     13834 MEMB     97       DOPC     H17R     HAL2     0.900000E-01   1.00800           0
     13835 MEMB     97       DOPC     H17S     HAL2     0.900000E-01   1.00800           0
     13836 MEMB     97       DOPC     C218     CTL3    -0.270000       12.0110           0
     13837 MEMB     97       DOPC     H18R     HAL3     0.900000E-01   1.00800           0
     13838 MEMB     97       DOPC     H18S     HAL3     0.900000E-01   1.00800           0
     13839 MEMB     97       DOPC     H18T     HAL3     0.900000E-01   1.00800           0
     13840 MEMB     97       DOPC     C33      CTL2    -0.180000       12.0110           0
     13841 MEMB     97       DOPC     H3X      HAL2     0.900000E-01   1.00800           0
     13842 MEMB     97       DOPC     H3Y      HAL2     0.900000E-01   1.00800           0
     13843 MEMB     97       DOPC     C34      CTL2    -0.180000       12.0110           0
     13844 MEMB     97       DOPC     H4X      HAL2     0.900000E-01   1.00800           0
     13845 MEMB     97       DOPC     H4Y      HAL2     0.900000E-01   1.00800           0
     13846 MEMB     97       DOPC     C35      CTL2    -0.180000       12.0110           0
     13847 MEMB     97       DOPC     H5X      HAL2     0.900000E-01   1.00800           0
     13848 MEMB     97       DOPC     H5Y      HAL2     0.900000E-01   1.00800           0
     13849 MEMB     97       DOPC     C36      CTL2    -0.180000       12.0110           0
     13850 MEMB     97       DOPC     H6X      HAL2     0.900000E-01   1.00800           0
     13851 MEMB     97       DOPC     H6Y      HAL2     0.900000E-01   1.00800           0
     13852 MEMB     97       DOPC     C37      CTL2    -0.180000       12.0110           0
     13853 MEMB     97       DOPC     H7X      HAL2     0.900000E-01   1.00800           0
     13854 MEMB     97       DOPC     H7Y      HAL2     0.900000E-01   1.00800           0
     13855 MEMB     97       DOPC     C38      CTL2    -0.180000       12.0110           0
     13856 MEMB     97       DOPC     H8X      HAL2     0.900000E-01   1.00800           0
     13857 MEMB     97       DOPC     H8Y      HAL2     0.900000E-01   1.00800           0
     13858 MEMB     97       DOPC     C39      CEL1    -0.150000       12.0110           0
     13859 MEMB     97       DOPC     H9X      HEL1     0.150000       1.00800           0
     13860 MEMB     97       DOPC     C310     CEL1    -0.150000       12.0110           0
     13861 MEMB     97       DOPC     H10X     HEL1     0.150000       1.00800           0
     13862 MEMB     97       DOPC     C311     CTL2    -0.180000       12.0110           0
     13863 MEMB     97       DOPC     H11X     HAL2     0.900000E-01   1.00800           0
     13864 MEMB     97       DOPC     H11Y     HAL2     0.900000E-01   1.00800           0
     13865 MEMB     97       DOPC     C312     CTL2    -0.180000       12.0110           0
     13866 MEMB     97       DOPC     H12X     HAL2     0.900000E-01   1.00800           0
     13867 MEMB     97       DOPC     H12Y     HAL2     0.900000E-01   1.00800           0
     13868 MEMB     97       DOPC     C313     CTL2    -0.180000       12.0110           0
     13869 MEMB     97       DOPC     H13X     HAL2     0.900000E-01   1.00800           0
     13870 MEMB     97       DOPC     H13Y     HAL2     0.900000E-01   1.00800           0
     13871 MEMB     97       DOPC     C314     CTL2    -0.180000       12.0110           0
     13872 MEMB     97       DOPC     H14X     HAL2     0.900000E-01   1.00800           0
     13873 MEMB     97       DOPC     H14Y     HAL2     0.900000E-01   1.00800           0
     13874 MEMB     97       DOPC     C315     CTL2    -0.180000       12.0110           0
     13875 MEMB     97       DOPC     H15X     HAL2     0.900000E-01   1.00800           0
     13876 MEMB     97       DOPC     H15Y     HAL2     0.900000E-01   1.00800           0
     13877 MEMB     97       DOPC     C316     CTL2    -0.180000       12.0110           0
     13878 MEMB     97       DOPC     H16X     HAL2     0.900000E-01   1.00800           0
     13879 MEMB     97       DOPC     H16Y     HAL2     0.900000E-01   1.00800           0
     13880 MEMB     97       DOPC     C317     CTL2    -0.180000       12.0110           0
     13881 MEMB     97       DOPC     H17X     HAL2     0.900000E-01   1.00800           0
     13882 MEMB     97       DOPC     H17Y     HAL2     0.900000E-01   1.00800           0
     13883 MEMB     97       DOPC     C318     CTL3    -0.270000       12.0110           0
     13884 MEMB     97       DOPC     H18X     HAL3     0.900000E-01   1.00800           0
     13885 MEMB     97       DOPC     H18Y     HAL3     0.900000E-01   1.00800           0
     13886 MEMB     97       DOPC     H18Z     HAL3     0.900000E-01   1.00800           0
     13887 MEMB     98       DOPC     N        NTL     -0.600000       14.0070           0
     13888 MEMB     98       DOPC     C12      CTL2    -0.100000       12.0110           0
     13889 MEMB     98       DOPC     H12A     HL       0.250000       1.00800           0
     13890 MEMB     98       DOPC     H12B     HL       0.250000       1.00800           0
     13891 MEMB     98       DOPC     C13      CTL5    -0.350000       12.0110           0
     13892 MEMB     98       DOPC     H13A     HL       0.250000       1.00800           0
     13893 MEMB     98       DOPC     H13B     HL       0.250000       1.00800           0
     13894 MEMB     98       DOPC     H13C     HL       0.250000       1.00800           0
     13895 MEMB     98       DOPC     C14      CTL5    -0.350000       12.0110           0
     13896 MEMB     98       DOPC     H14A     HL       0.250000       1.00800           0
     13897 MEMB     98       DOPC     H14B     HL       0.250000       1.00800           0
     13898 MEMB     98       DOPC     H14C     HL       0.250000       1.00800           0
     13899 MEMB     98       DOPC     C15      CTL5    -0.350000       12.0110           0
     13900 MEMB     98       DOPC     H15A     HL       0.250000       1.00800           0
     13901 MEMB     98       DOPC     H15B     HL       0.250000       1.00800           0
     13902 MEMB     98       DOPC     H15C     HL       0.250000       1.00800           0
     13903 MEMB     98       DOPC     C11      CTL2    -0.800000E-01   12.0110           0
     13904 MEMB     98       DOPC     H11A     HAL2     0.900000E-01   1.00800           0
     13905 MEMB     98       DOPC     H11B     HAL2     0.900000E-01   1.00800           0
     13906 MEMB     98       DOPC     P        PL        1.50000       30.9740           0
     13907 MEMB     98       DOPC     O13      O2L     -0.780000       15.9994           0
     13908 MEMB     98       DOPC     O14      O2L     -0.780000       15.9994           0
     13909 MEMB     98       DOPC     O12      OSLP    -0.570000       15.9994           0
     13910 MEMB     98       DOPC     O11      OSLP    -0.570000       15.9994           0
     13911 MEMB     98       DOPC     C1       CTL2    -0.800000E-01   12.0110           0
     13912 MEMB     98       DOPC     HA       HAL2     0.900000E-01   1.00800           0
     13913 MEMB     98       DOPC     HB       HAL2     0.900000E-01   1.00800           0
     13914 MEMB     98       DOPC     C2       CTL1     0.170000       12.0110           0
     13915 MEMB     98       DOPC     HS       HAL1     0.900000E-01   1.00800           0
     13916 MEMB     98       DOPC     O21      OSL     -0.490000       15.9994           0
     13917 MEMB     98       DOPC     C21      CL       0.900000       12.0110           0
     13918 MEMB     98       DOPC     O22      OBL     -0.630000       15.9994           0
     13919 MEMB     98       DOPC     C22      CTL2    -0.220000       12.0110           0
     13920 MEMB     98       DOPC     H2R      HAL2     0.900000E-01   1.00800           0
     13921 MEMB     98       DOPC     H2S      HAL2     0.900000E-01   1.00800           0
     13922 MEMB     98       DOPC     C3       CTL2     0.800000E-01   12.0110           0
     13923 MEMB     98       DOPC     HX       HAL2     0.900000E-01   1.00800           0
     13924 MEMB     98       DOPC     HY       HAL2     0.900000E-01   1.00800           0
     13925 MEMB     98       DOPC     O31      OSL     -0.490000       15.9994           0
     13926 MEMB     98       DOPC     C31      CL       0.900000       12.0110           0
     13927 MEMB     98       DOPC     O32      OBL     -0.630000       15.9994           0
     13928 MEMB     98       DOPC     C32      CTL2    -0.220000       12.0110           0
     13929 MEMB     98       DOPC     H2X      HAL2     0.900000E-01   1.00800           0
     13930 MEMB     98       DOPC     H2Y      HAL2     0.900000E-01   1.00800           0
     13931 MEMB     98       DOPC     C23      CTL2    -0.180000       12.0110           0
     13932 MEMB     98       DOPC     H3R      HAL2     0.900000E-01   1.00800           0
     13933 MEMB     98       DOPC     H3S      HAL2     0.900000E-01   1.00800           0
     13934 MEMB     98       DOPC     C24      CTL2    -0.180000       12.0110           0
     13935 MEMB     98       DOPC     H4R      HAL2     0.900000E-01   1.00800           0
     13936 MEMB     98       DOPC     H4S      HAL2     0.900000E-01   1.00800           0
     13937 MEMB     98       DOPC     C25      CTL2    -0.180000       12.0110           0
     13938 MEMB     98       DOPC     H5R      HAL2     0.900000E-01   1.00800           0
     13939 MEMB     98       DOPC     H5S      HAL2     0.900000E-01   1.00800           0
     13940 MEMB     98       DOPC     C26      CTL2    -0.180000       12.0110           0
     13941 MEMB     98       DOPC     H6R      HAL2     0.900000E-01   1.00800           0
     13942 MEMB     98       DOPC     H6S      HAL2     0.900000E-01   1.00800           0
     13943 MEMB     98       DOPC     C27      CTL2    -0.180000       12.0110           0
     13944 MEMB     98       DOPC     H7R      HAL2     0.900000E-01   1.00800           0
     13945 MEMB     98       DOPC     H7S      HAL2     0.900000E-01   1.00800           0
     13946 MEMB     98       DOPC     C28      CTL2    -0.180000       12.0110           0
     13947 MEMB     98       DOPC     H8R      HAL2     0.900000E-01   1.00800           0
     13948 MEMB     98       DOPC     H8S      HAL2     0.900000E-01   1.00800           0
     13949 MEMB     98       DOPC     C29      CEL1    -0.150000       12.0110           0
     13950 MEMB     98       DOPC     H9R      HEL1     0.150000       1.00800           0
     13951 MEMB     98       DOPC     C210     CEL1    -0.150000       12.0110           0
     13952 MEMB     98       DOPC     H10R     HEL1     0.150000       1.00800           0
     13953 MEMB     98       DOPC     C211     CTL2    -0.180000       12.0110           0
     13954 MEMB     98       DOPC     H11R     HAL2     0.900000E-01   1.00800           0
     13955 MEMB     98       DOPC     H11S     HAL2     0.900000E-01   1.00800           0
     13956 MEMB     98       DOPC     C212     CTL2    -0.180000       12.0110           0
     13957 MEMB     98       DOPC     H12R     HAL2     0.900000E-01   1.00800           0
     13958 MEMB     98       DOPC     H12S     HAL2     0.900000E-01   1.00800           0
     13959 MEMB     98       DOPC     C213     CTL2    -0.180000       12.0110           0
     13960 MEMB     98       DOPC     H13R     HAL2     0.900000E-01   1.00800           0
     13961 MEMB     98       DOPC     H13S     HAL2     0.900000E-01   1.00800           0
     13962 MEMB     98       DOPC     C214     CTL2    -0.180000       12.0110           0
     13963 MEMB     98       DOPC     H14R     HAL2     0.900000E-01   1.00800           0
     13964 MEMB     98       DOPC     H14S     HAL2     0.900000E-01   1.00800           0
     13965 MEMB     98       DOPC     C215     CTL2    -0.180000       12.0110           0
     13966 MEMB     98       DOPC     H15R     HAL2     0.900000E-01   1.00800           0
     13967 MEMB     98       DOPC     H15S     HAL2     0.900000E-01   1.00800           0
     13968 MEMB     98       DOPC     C216     CTL2    -0.180000       12.0110           0
     13969 MEMB     98       DOPC     H16R     HAL2     0.900000E-01   1.00800           0
     13970 MEMB     98       DOPC     H16S     HAL2     0.900000E-01   1.00800           0
     13971 MEMB     98       DOPC     C217     CTL2    -0.180000       12.0110           0
     13972 MEMB     98       DOPC     H17R     HAL2     0.900000E-01   1.00800           0
     13973 MEMB     98       DOPC     H17S     HAL2     0.900000E-01   1.00800           0
     13974 MEMB     98       DOPC     C218     CTL3    -0.270000       12.0110           0
     13975 MEMB     98       DOPC     H18R     HAL3     0.900000E-01   1.00800           0
     13976 MEMB     98       DOPC     H18S     HAL3     0.900000E-01   1.00800           0
     13977 MEMB     98       DOPC     H18T     HAL3     0.900000E-01   1.00800           0
     13978 MEMB     98       DOPC     C33      CTL2    -0.180000       12.0110           0
     13979 MEMB     98       DOPC     H3X      HAL2     0.900000E-01   1.00800           0
     13980 MEMB     98       DOPC     H3Y      HAL2     0.900000E-01   1.00800           0
     13981 MEMB     98       DOPC     C34      CTL2    -0.180000       12.0110           0
     13982 MEMB     98       DOPC     H4X      HAL2     0.900000E-01   1.00800           0
     13983 MEMB     98       DOPC     H4Y      HAL2     0.900000E-01   1.00800           0
     13984 MEMB     98       DOPC     C35      CTL2    -0.180000       12.0110           0
     13985 MEMB     98       DOPC     H5X      HAL2     0.900000E-01   1.00800           0
     13986 MEMB     98       DOPC     H5Y      HAL2     0.900000E-01   1.00800           0
     13987 MEMB     98       DOPC     C36      CTL2    -0.180000       12.0110           0
     13988 MEMB     98       DOPC     H6X      HAL2     0.900000E-01   1.00800           0
     13989 MEMB     98       DOPC     H6Y      HAL2     0.900000E-01   1.00800           0
     13990 MEMB     98       DOPC     C37      CTL2    -0.180000       12.0110           0
     13991 MEMB     98       DOPC     H7X      HAL2     0.900000E-01   1.00800           0
     13992 MEMB     98       DOPC     H7Y      HAL2     0.900000E-01   1.00800           0
     13993 MEMB     98       DOPC     C38      CTL2    -0.180000       12.0110           0
     13994 MEMB     98       DOPC     H8X      HAL2     0.900000E-01   1.00800           0
     13995 MEMB     98       DOPC     H8Y      HAL2     0.900000E-01   1.00800           0
     13996 MEMB     98       DOPC     C39      CEL1    -0.150000       12.0110           0
     13997 MEMB     98       DOPC     H9X      HEL1     0.150000       1.00800           0
     13998 MEMB     98       DOPC     C310     CEL1    -0.150000       12.0110           0
     13999 MEMB     98       DOPC     H10X     HEL1     0.150000       1.00800           0
     14000 MEMB     98       DOPC     C311     CTL2    -0.180000       12.0110           0
     14001 MEMB     98       DOPC     H11X     HAL2     0.900000E-01   1.00800           0
     14002 MEMB     98       DOPC     H11Y     HAL2     0.900000E-01   1.00800           0
     14003 MEMB     98       DOPC     C312     CTL2    -0.180000       12.0110           0
     14004 MEMB     98       DOPC     H12X     HAL2     0.900000E-01   1.00800           0
     14005 MEMB     98       DOPC     H12Y     HAL2     0.900000E-01   1.00800           0
     14006 MEMB     98       DOPC     C313     CTL2    -0.180000       12.0110           0
     14007 MEMB     98       DOPC     H13X     HAL2     0.900000E-01   1.00800           0
     14008 MEMB     98       DOPC     H13Y     HAL2     0.900000E-01   1.00800           0
     14009 MEMB     98       DOPC     C314     CTL2    -0.180000       12.0110           0
     14010 MEMB     98       DOPC     H14X     HAL2     0.900000E-01   1.00800           0
     14011 MEMB     98       DOPC     H14Y     HAL2     0.900000E-01   1.00800           0
     14012 MEMB     98       DOPC     C315     CTL2    -0.180000       12.0110           0
     14013 MEMB     98       DOPC     H15X     HAL2     0.900000E-01   1.00800           0
     14014 MEMB     98       DOPC     H15Y     HAL2     0.900000E-01   1.00800           0
     14015 MEMB     98       DOPC     C316     CTL2    -0.180000       12.0110           0
     14016 MEMB     98       DOPC     H16X     HAL2     0.900000E-01   1.00800           0
     14017 MEMB     98       DOPC     H16Y     HAL2     0.900000E-01   1.00800           0
     14018 MEMB     98       DOPC     C317     CTL2    -0.180000       12.0110           0
     14019 MEMB     98       DOPC     H17X     HAL2     0.900000E-01   1.00800           0
     14020 MEMB     98       DOPC     H17Y     HAL2     0.900000E-01   1.00800           0
     14021 MEMB     98       DOPC     C318     CTL3    -0.270000       12.0110           0
     14022 MEMB     98       DOPC     H18X     HAL3     0.900000E-01   1.00800           0
     14023 MEMB     98       DOPC     H18Y     HAL3     0.900000E-01   1.00800           0
     14024 MEMB     98       DOPC     H18Z     HAL3     0.900000E-01   1.00800           0
     14025 MEMB     99       DOPC     N        NTL     -0.600000       14.0070           0
     14026 MEMB     99       DOPC     C12      CTL2    -0.100000       12.0110           0
     14027 MEMB     99       DOPC     H12A     HL       0.250000       1.00800           0
     14028 MEMB     99       DOPC     H12B     HL       0.250000       1.00800           0
     14029 MEMB     99       DOPC     C13      CTL5    -0.350000       12.0110           0
     14030 MEMB     99       DOPC     H13A     HL       0.250000       1.00800           0
     14031 MEMB     99       DOPC     H13B     HL       0.250000       1.00800           0
     14032 MEMB     99       DOPC     H13C     HL       0.250000       1.00800           0
     14033 MEMB     99       DOPC     C14      CTL5    -0.350000       12.0110           0
     14034 MEMB     99       DOPC     H14A     HL       0.250000       1.00800           0
     14035 MEMB     99       DOPC     H14B     HL       0.250000       1.00800           0
     14036 MEMB     99       DOPC     H14C     HL       0.250000       1.00800           0
     14037 MEMB     99       DOPC     C15      CTL5    -0.350000       12.0110           0
     14038 MEMB     99       DOPC     H15A     HL       0.250000       1.00800           0
     14039 MEMB     99       DOPC     H15B     HL       0.250000       1.00800           0
     14040 MEMB     99       DOPC     H15C     HL       0.250000       1.00800           0
     14041 MEMB     99       DOPC     C11      CTL2    -0.800000E-01   12.0110           0
     14042 MEMB     99       DOPC     H11A     HAL2     0.900000E-01   1.00800           0
     14043 MEMB     99       DOPC     H11B     HAL2     0.900000E-01   1.00800           0
     14044 MEMB     99       DOPC     P        PL        1.50000       30.9740           0
     14045 MEMB     99       DOPC     O13      O2L     -0.780000       15.9994           0
     14046 MEMB     99       DOPC     O14      O2L     -0.780000       15.9994           0
     14047 MEMB     99       DOPC     O12      OSLP    -0.570000       15.9994           0
     14048 MEMB     99       DOPC     O11      OSLP    -0.570000       15.9994           0
     14049 MEMB     99       DOPC     C1       CTL2    -0.800000E-01   12.0110           0
     14050 MEMB     99       DOPC     HA       HAL2     0.900000E-01   1.00800           0
     14051 MEMB     99       DOPC     HB       HAL2     0.900000E-01   1.00800           0
     14052 MEMB     99       DOPC     C2       CTL1     0.170000       12.0110           0
     14053 MEMB     99       DOPC     HS       HAL1     0.900000E-01   1.00800           0
     14054 MEMB     99       DOPC     O21      OSL     -0.490000       15.9994           0
     14055 MEMB     99       DOPC     C21      CL       0.900000       12.0110           0
     14056 MEMB     99       DOPC     O22      OBL     -0.630000       15.9994           0
     14057 MEMB     99       DOPC     C22      CTL2    -0.220000       12.0110           0
     14058 MEMB     99       DOPC     H2R      HAL2     0.900000E-01   1.00800           0
     14059 MEMB     99       DOPC     H2S      HAL2     0.900000E-01   1.00800           0
     14060 MEMB     99       DOPC     C3       CTL2     0.800000E-01   12.0110           0
     14061 MEMB     99       DOPC     HX       HAL2     0.900000E-01   1.00800           0
     14062 MEMB     99       DOPC     HY       HAL2     0.900000E-01   1.00800           0
     14063 MEMB     99       DOPC     O31      OSL     -0.490000       15.9994           0
     14064 MEMB     99       DOPC     C31      CL       0.900000       12.0110           0
     14065 MEMB     99       DOPC     O32      OBL     -0.630000       15.9994           0
     14066 MEMB     99       DOPC     C32      CTL2    -0.220000       12.0110           0
     14067 MEMB     99       DOPC     H2X      HAL2     0.900000E-01   1.00800           0
     14068 MEMB     99       DOPC     H2Y      HAL2     0.900000E-01   1.00800           0
     14069 MEMB     99       DOPC     C23      CTL2    -0.180000       12.0110           0
     14070 MEMB     99       DOPC     H3R      HAL2     0.900000E-01   1.00800           0
     14071 MEMB     99       DOPC     H3S      HAL2     0.900000E-01   1.00800           0
     14072 MEMB     99       DOPC     C24      CTL2    -0.180000       12.0110           0
     14073 MEMB     99       DOPC     H4R      HAL2     0.900000E-01   1.00800           0
     14074 MEMB     99       DOPC     H4S      HAL2     0.900000E-01   1.00800           0
     14075 MEMB     99       DOPC     C25      CTL2    -0.180000       12.0110           0
     14076 MEMB     99       DOPC     H5R      HAL2     0.900000E-01   1.00800           0
     14077 MEMB     99       DOPC     H5S      HAL2     0.900000E-01   1.00800           0
     14078 MEMB     99       DOPC     C26      CTL2    -0.180000       12.0110           0
     14079 MEMB     99       DOPC     H6R      HAL2     0.900000E-01   1.00800           0
     14080 MEMB     99       DOPC     H6S      HAL2     0.900000E-01   1.00800           0
     14081 MEMB     99       DOPC     C27      CTL2    -0.180000       12.0110           0
     14082 MEMB     99       DOPC     H7R      HAL2     0.900000E-01   1.00800           0
     14083 MEMB     99       DOPC     H7S      HAL2     0.900000E-01   1.00800           0
     14084 MEMB     99       DOPC     C28      CTL2    -0.180000       12.0110           0
     14085 MEMB     99       DOPC     H8R      HAL2     0.900000E-01   1.00800           0
     14086 MEMB     99       DOPC     H8S      HAL2     0.900000E-01   1.00800           0
     14087 MEMB     99       DOPC     C29      CEL1    -0.150000       12.0110           0
     14088 MEMB     99       DOPC     H9R      HEL1     0.150000       1.00800           0
     14089 MEMB     99       DOPC     C210     CEL1    -0.150000       12.0110           0
     14090 MEMB     99       DOPC     H10R     HEL1     0.150000       1.00800           0
     14091 MEMB     99       DOPC     C211     CTL2    -0.180000       12.0110           0
     14092 MEMB     99       DOPC     H11R     HAL2     0.900000E-01   1.00800           0
     14093 MEMB     99       DOPC     H11S     HAL2     0.900000E-01   1.00800           0
     14094 MEMB     99       DOPC     C212     CTL2    -0.180000       12.0110           0
     14095 MEMB     99       DOPC     H12R     HAL2     0.900000E-01   1.00800           0
     14096 MEMB     99       DOPC     H12S     HAL2     0.900000E-01   1.00800           0
     14097 MEMB     99       DOPC     C213     CTL2    -0.180000       12.0110           0
     14098 MEMB     99       DOPC     H13R     HAL2     0.900000E-01   1.00800           0
     14099 MEMB     99       DOPC     H13S     HAL2     0.900000E-01   1.00800           0
     14100 MEMB     99       DOPC     C214     CTL2    -0.180000       12.0110           0
     14101 MEMB     99       DOPC     H14R     HAL2     0.900000E-01   1.00800           0
     14102 MEMB     99       DOPC     H14S     HAL2     0.900000E-01   1.00800           0
     14103 MEMB     99       DOPC     C215     CTL2    -0.180000       12.0110           0
     14104 MEMB     99       DOPC     H15R     HAL2     0.900000E-01   1.00800           0
     14105 MEMB     99       DOPC     H15S     HAL2     0.900000E-01   1.00800           0
     14106 MEMB     99       DOPC     C216     CTL2    -0.180000       12.0110           0
     14107 MEMB     99       DOPC     H16R     HAL2     0.900000E-01   1.00800           0
     14108 MEMB     99       DOPC     H16S     HAL2     0.900000E-01   1.00800           0
     14109 MEMB     99       DOPC     C217     CTL2    -0.180000       12.0110           0
     14110 MEMB     99       DOPC     H17R     HAL2     0.900000E-01   1.00800           0
     14111 MEMB     99       DOPC     H17S     HAL2     0.900000E-01   1.00800           0
     14112 MEMB     99       DOPC     C218     CTL3    -0.270000       12.0110           0
     14113 MEMB     99       DOPC     H18R     HAL3     0.900000E-01   1.00800           0
     14114 MEMB     99       DOPC     H18S     HAL3     0.900000E-01   1.00800           0
     14115 MEMB     99       DOPC     H18T     HAL3     0.900000E-01   1.00800           0
     14116 MEMB     99       DOPC     C33      CTL2    -0.180000       12.0110           0
     14117 MEMB     99       DOPC     H3X      HAL2     0.900000E-01   1.00800           0
     14118 MEMB     99       DOPC     H3Y      HAL2     0.900000E-01   1.00800           0
     14119 MEMB     99       DOPC     C34      CTL2    -0.180000       12.0110           0
     14120 MEMB     99       DOPC     H4X      HAL2     0.900000E-01   1.00800           0
     14121 MEMB     99       DOPC     H4Y      HAL2     0.900000E-01   1.00800           0
     14122 MEMB     99       DOPC     C35      CTL2    -0.180000       12.0110           0
     14123 MEMB     99       DOPC     H5X      HAL2     0.900000E-01   1.00800           0
     14124 MEMB     99       DOPC     H5Y      HAL2     0.900000E-01   1.00800           0
     14125 MEMB     99       DOPC     C36      CTL2    -0.180000       12.0110           0
     14126 MEMB     99       DOPC     H6X      HAL2     0.900000E-01   1.00800           0
     14127 MEMB     99       DOPC     H6Y      HAL2     0.900000E-01   1.00800           0
     14128 MEMB     99       DOPC     C37      CTL2    -0.180000       12.0110           0
     14129 MEMB     99       DOPC     H7X      HAL2     0.900000E-01   1.00800           0
     14130 MEMB     99       DOPC     H7Y      HAL2     0.900000E-01   1.00800           0
     14131 MEMB     99       DOPC     C38      CTL2    -0.180000       12.0110           0
     14132 MEMB     99       DOPC     H8X      HAL2     0.900000E-01   1.00800           0
     14133 MEMB     99       DOPC     H8Y      HAL2     0.900000E-01   1.00800           0
     14134 MEMB     99       DOPC     C39      CEL1    -0.150000       12.0110           0
     14135 MEMB     99       DOPC     H9X      HEL1     0.150000       1.00800           0
     14136 MEMB     99       DOPC     C310     CEL1    -0.150000       12.0110           0
     14137 MEMB     99       DOPC     H10X     HEL1     0.150000       1.00800           0
     14138 MEMB     99       DOPC     C311     CTL2    -0.180000       12.0110           0
     14139 MEMB     99       DOPC     H11X     HAL2     0.900000E-01   1.00800           0
     14140 MEMB     99       DOPC     H11Y     HAL2     0.900000E-01   1.00800           0
     14141 MEMB     99       DOPC     C312     CTL2    -0.180000       12.0110           0
     14142 MEMB     99       DOPC     H12X     HAL2     0.900000E-01   1.00800           0
     14143 MEMB     99       DOPC     H12Y     HAL2     0.900000E-01   1.00800           0
     14144 MEMB     99       DOPC     C313     CTL2    -0.180000       12.0110           0
     14145 MEMB     99       DOPC     H13X     HAL2     0.900000E-01   1.00800           0
     14146 MEMB     99       DOPC     H13Y     HAL2     0.900000E-01   1.00800           0
     14147 MEMB     99       DOPC     C314     CTL2    -0.180000       12.0110           0
     14148 MEMB     99       DOPC     H14X     HAL2     0.900000E-01   1.00800           0
     14149 MEMB     99       DOPC     H14Y     HAL2     0.900000E-01   1.00800           0
     14150 MEMB     99       DOPC     C315     CTL2    -0.180000       12.0110           0
     14151 MEMB     99       DOPC     H15X     HAL2     0.900000E-01   1.00800           0
     14152 MEMB     99       DOPC     H15Y     HAL2     0.900000E-01   1.00800           0
     14153 MEMB     99       DOPC     C316     CTL2    -0.180000       12.0110           0
     14154 MEMB     99       DOPC     H16X     HAL2     0.900000E-01   1.00800           0
     14155 MEMB     99       DOPC     H16Y     HAL2     0.900000E-01   1.00800           0
     14156 MEMB     99       DOPC     C317     CTL2    -0.180000       12.0110           0
     14157 MEMB     99       DOPC     H17X     HAL2     0.900000E-01   1.00800           0
     14158 MEMB     99       DOPC     H17Y     HAL2     0.900000E-01   1.00800           0
     14159 MEMB     99       DOPC     C318     CTL3    -0.270000       12.0110           0
     14160 MEMB     99       DOPC     H18X     HAL3     0.900000E-01   1.00800           0
     14161 MEMB     99       DOPC     H18Y     HAL3     0.900000E-01   1.00800           0
     14162 MEMB     99       DOPC     H18Z     HAL3     0.900000E-01   1.00800           0
     14163 MEMB     100      DOPC     N        NTL     -0.600000       14.0070           0
     14164 MEMB     100      DOPC     C12      CTL2    -0.100000       12.0110           0
     14165 MEMB     100      DOPC     H12A     HL       0.250000       1.00800           0
     14166 MEMB     100      DOPC     H12B     HL       0.250000       1.00800           0
     14167 MEMB     100      DOPC     C13      CTL5    -0.350000       12.0110           0
     14168 MEMB     100      DOPC     H13A     HL       0.250000       1.00800           0
     14169 MEMB     100      DOPC     H13B     HL       0.250000       1.00800           0
     14170 MEMB     100      DOPC     H13C     HL       0.250000       1.00800           0
     14171 MEMB     100      DOPC     C14      CTL5    -0.350000       12.0110           0
     14172 MEMB     100      DOPC     H14A     HL       0.250000       1.00800           0
     14173 MEMB     100      DOPC     H14B     HL       0.250000       1.00800           0
     14174 MEMB     100      DOPC     H14C     HL       0.250000       1.00800           0
     14175 MEMB     100      DOPC     C15      CTL5    -0.350000       12.0110           0
     14176 MEMB     100      DOPC     H15A     HL       0.250000       1.00800           0
     14177 MEMB     100      DOPC     H15B     HL       0.250000       1.00800           0
     14178 MEMB     100      DOPC     H15C     HL       0.250000       1.00800           0
     14179 MEMB     100      DOPC     C11      CTL2    -0.800000E-01   12.0110           0
     14180 MEMB     100      DOPC     H11A     HAL2     0.900000E-01   1.00800           0
     14181 MEMB     100      DOPC     H11B     HAL2     0.900000E-01   1.00800           0
     14182 MEMB     100      DOPC     P        PL        1.50000       30.9740           0
     14183 MEMB     100      DOPC     O13      O2L     -0.780000       15.9994           0
     14184 MEMB     100      DOPC     O14      O2L     -0.780000       15.9994           0
     14185 MEMB     100      DOPC     O12      OSLP    -0.570000       15.9994           0
     14186 MEMB     100      DOPC     O11      OSLP    -0.570000       15.9994           0
     14187 MEMB     100      DOPC     C1       CTL2    -0.800000E-01   12.0110           0
     14188 MEMB     100      DOPC     HA       HAL2     0.900000E-01   1.00800           0
     14189 MEMB     100      DOPC     HB       HAL2     0.900000E-01   1.00800           0
     14190 MEMB     100      DOPC     C2       CTL1     0.170000       12.0110           0
     14191 MEMB     100      DOPC     HS       HAL1     0.900000E-01   1.00800           0
     14192 MEMB     100      DOPC     O21      OSL     -0.490000       15.9994           0
     14193 MEMB     100      DOPC     C21      CL       0.900000       12.0110           0
     14194 MEMB     100      DOPC     O22      OBL     -0.630000       15.9994           0
     14195 MEMB     100      DOPC     C22      CTL2    -0.220000       12.0110           0
     14196 MEMB     100      DOPC     H2R      HAL2     0.900000E-01   1.00800           0
     14197 MEMB     100      DOPC     H2S      HAL2     0.900000E-01   1.00800           0
     14198 MEMB     100      DOPC     C3       CTL2     0.800000E-01   12.0110           0
     14199 MEMB     100      DOPC     HX       HAL2     0.900000E-01   1.00800           0
     14200 MEMB     100      DOPC     HY       HAL2     0.900000E-01   1.00800           0
     14201 MEMB     100      DOPC     O31      OSL     -0.490000       15.9994           0
     14202 MEMB     100      DOPC     C31      CL       0.900000       12.0110           0
     14203 MEMB     100      DOPC     O32      OBL     -0.630000       15.9994           0
     14204 MEMB     100      DOPC     C32      CTL2    -0.220000       12.0110           0
     14205 MEMB     100      DOPC     H2X      HAL2     0.900000E-01   1.00800           0
     14206 MEMB     100      DOPC     H2Y      HAL2     0.900000E-01   1.00800           0
     14207 MEMB     100      DOPC     C23      CTL2    -0.180000       12.0110           0
     14208 MEMB     100      DOPC     H3R      HAL2     0.900000E-01   1.00800           0
     14209 MEMB     100      DOPC     H3S      HAL2     0.900000E-01   1.00800           0
     14210 MEMB     100      DOPC     C24      CTL2    -0.180000       12.0110           0
     14211 MEMB     100      DOPC     H4R      HAL2     0.900000E-01   1.00800           0
     14212 MEMB     100      DOPC     H4S      HAL2     0.900000E-01   1.00800           0
     14213 MEMB     100      DOPC     C25      CTL2    -0.180000       12.0110           0
     14214 MEMB     100      DOPC     H5R      HAL2     0.900000E-01   1.00800           0
     14215 MEMB     100      DOPC     H5S      HAL2     0.900000E-01   1.00800           0
     14216 MEMB     100      DOPC     C26      CTL2    -0.180000       12.0110           0
     14217 MEMB     100      DOPC     H6R      HAL2     0.900000E-01   1.00800           0
     14218 MEMB     100      DOPC     H6S      HAL2     0.900000E-01   1.00800           0
     14219 MEMB     100      DOPC     C27      CTL2    -0.180000       12.0110           0
     14220 MEMB     100      DOPC     H7R      HAL2     0.900000E-01   1.00800           0
     14221 MEMB     100      DOPC     H7S      HAL2     0.900000E-01   1.00800           0
     14222 MEMB     100      DOPC     C28      CTL2    -0.180000       12.0110           0
     14223 MEMB     100      DOPC     H8R      HAL2     0.900000E-01   1.00800           0
     14224 MEMB     100      DOPC     H8S      HAL2     0.900000E-01   1.00800           0
     14225 MEMB     100      DOPC     C29      CEL1    -0.150000       12.0110           0
     14226 MEMB     100      DOPC     H9R      HEL1     0.150000       1.00800           0
     14227 MEMB     100      DOPC     C210     CEL1    -0.150000       12.0110           0
     14228 MEMB     100      DOPC     H10R     HEL1     0.150000       1.00800           0
     14229 MEMB     100      DOPC     C211     CTL2    -0.180000       12.0110           0
     14230 MEMB     100      DOPC     H11R     HAL2     0.900000E-01   1.00800           0
     14231 MEMB     100      DOPC     H11S     HAL2     0.900000E-01   1.00800           0
     14232 MEMB     100      DOPC     C212     CTL2    -0.180000       12.0110           0
     14233 MEMB     100      DOPC     H12R     HAL2     0.900000E-01   1.00800           0
     14234 MEMB     100      DOPC     H12S     HAL2     0.900000E-01   1.00800           0
     14235 MEMB     100      DOPC     C213     CTL2    -0.180000       12.0110           0
     14236 MEMB     100      DOPC     H13R     HAL2     0.900000E-01   1.00800           0
     14237 MEMB     100      DOPC     H13S     HAL2     0.900000E-01   1.00800           0
     14238 MEMB     100      DOPC     C214     CTL2    -0.180000       12.0110           0
     14239 MEMB     100      DOPC     H14R     HAL2     0.900000E-01   1.00800           0
     14240 MEMB     100      DOPC     H14S     HAL2     0.900000E-01   1.00800           0
     14241 MEMB     100      DOPC     C215     CTL2    -0.180000       12.0110           0
     14242 MEMB     100      DOPC     H15R     HAL2     0.900000E-01   1.00800           0
     14243 MEMB     100      DOPC     H15S     HAL2     0.900000E-01   1.00800           0
     14244 MEMB     100      DOPC     C216     CTL2    -0.180000       12.0110           0
     14245 MEMB     100      DOPC     H16R     HAL2     0.900000E-01   1.00800           0
     14246 MEMB     100      DOPC     H16S     HAL2     0.900000E-01   1.00800           0
     14247 MEMB     100      DOPC     C217     CTL2    -0.180000       12.0110           0
     14248 MEMB     100      DOPC     H17R     HAL2     0.900000E-01   1.00800           0
     14249 MEMB     100      DOPC     H17S     HAL2     0.900000E-01   1.00800           0
     14250 MEMB     100      DOPC     C218     CTL3    -0.270000       12.0110           0
     14251 MEMB     100      DOPC     H18R     HAL3     0.900000E-01   1.00800           0
     14252 MEMB     100      DOPC     H18S     HAL3     0.900000E-01   1.00800           0
     14253 MEMB     100      DOPC     H18T     HAL3     0.900000E-01   1.00800           0
     14254 MEMB     100      DOPC     C33      CTL2    -0.180000       12.0110           0
     14255 MEMB     100      DOPC     H3X      HAL2     0.900000E-01   1.00800           0
     14256 MEMB     100      DOPC     H3Y      HAL2     0.900000E-01   1.00800           0
     14257 MEMB     100      DOPC     C34      CTL2    -0.180000       12.0110           0
     14258 MEMB     100      DOPC     H4X      HAL2     0.900000E-01   1.00800           0
     14259 MEMB     100      DOPC     H4Y      HAL2     0.900000E-01   1.00800           0
     14260 MEMB     100      DOPC     C35      CTL2    -0.180000       12.0110           0
     14261 MEMB     100      DOPC     H5X      HAL2     0.900000E-01   1.00800           0
     14262 MEMB     100      DOPC     H5Y      HAL2     0.900000E-01   1.00800           0
     14263 MEMB     100      DOPC     C36      CTL2    -0.180000       12.0110           0
     14264 MEMB     100      DOPC     H6X      HAL2     0.900000E-01   1.00800           0
     14265 MEMB     100      DOPC     H6Y      HAL2     0.900000E-01   1.00800           0
     14266 MEMB     100      DOPC     C37      CTL2    -0.180000       12.0110           0
     14267 MEMB     100      DOPC     H7X      HAL2     0.900000E-01   1.00800           0
     14268 MEMB     100      DOPC     H7Y      HAL2     0.900000E-01   1.00800           0
     14269 MEMB     100      DOPC     C38      CTL2    -0.180000       12.0110           0
     14270 MEMB     100      DOPC     H8X      HAL2     0.900000E-01   1.00800           0
     14271 MEMB     100      DOPC     H8Y      HAL2     0.900000E-01   1.00800           0
     14272 MEMB     100      DOPC     C39      CEL1    -0.150000       12.0110           0
     14273 MEMB     100      DOPC     H9X      HEL1     0.150000       1.00800           0
     14274 MEMB     100      DOPC     C310     CEL1    -0.150000       12.0110           0
     14275 MEMB     100      DOPC     H10X     HEL1     0.150000       1.00800           0
     14276 MEMB     100      DOPC     C311     CTL2    -0.180000       12.0110           0
     14277 MEMB     100      DOPC     H11X     HAL2     0.900000E-01   1.00800           0
     14278 MEMB     100      DOPC     H11Y     HAL2     0.900000E-01   1.00800           0
     14279 MEMB     100      DOPC     C312     CTL2    -0.180000       12.0110           0
     14280 MEMB     100      DOPC     H12X     HAL2     0.900000E-01   1.00800           0
     14281 MEMB     100      DOPC     H12Y     HAL2     0.900000E-01   1.00800           0
     14282 MEMB     100      DOPC     C313     CTL2    -0.180000       12.0110           0
     14283 MEMB     100      DOPC     H13X     HAL2     0.900000E-01   1.00800           0
     14284 MEMB     100      DOPC     H13Y     HAL2     0.900000E-01   1.00800           0
     14285 MEMB     100      DOPC     C314     CTL2    -0.180000       12.0110           0
     14286 MEMB     100      DOPC     H14X     HAL2     0.900000E-01   1.00800           0
     14287 MEMB     100      DOPC     H14Y     HAL2     0.900000E-01   1.00800           0
     14288 MEMB     100      DOPC     C315     CTL2    -0.180000       12.0110           0
     14289 MEMB     100      DOPC     H15X     HAL2     0.900000E-01   1.00800           0
     14290 MEMB     100      DOPC     H15Y     HAL2     0.900000E-01   1.00800           0
     14291 MEMB     100      DOPC     C316     CTL2    -0.180000       12.0110           0
     14292 MEMB     100      DOPC     H16X     HAL2     0.900000E-01   1.00800           0
     14293 MEMB     100      DOPC     H16Y     HAL2     0.900000E-01   1.00800           0
     14294 MEMB     100      DOPC     C317     CTL2    -0.180000       12.0110           0
     14295 MEMB     100      DOPC     H17X     HAL2     0.900000E-01   1.00800           0
     14296 MEMB     100      DOPC     H17Y     HAL2     0.900000E-01   1.00800           0
     14297 MEMB     100      DOPC     C318     CTL3    -0.270000       12.0110           0
     14298 MEMB     100      DOPC     H18X     HAL3     0.900000E-01   1.00800           0
     14299 MEMB     100      DOPC     H18Y     HAL3     0.900000E-01   1.00800           0
     14300 MEMB     100      DOPC     H18Z     HAL3     0.900000E-01   1.00800           0
     14301 MEMB     101      DOPC     N        NTL     -0.600000       14.0070           0
     14302 MEMB     101      DOPC     C12      CTL2    -0.100000       12.0110           0
     14303 MEMB     101      DOPC     H12A     HL       0.250000       1.00800           0
     14304 MEMB     101      DOPC     H12B     HL       0.250000       1.00800           0
     14305 MEMB     101      DOPC     C13      CTL5    -0.350000       12.0110           0
     14306 MEMB     101      DOPC     H13A     HL       0.250000       1.00800           0
     14307 MEMB     101      DOPC     H13B     HL       0.250000       1.00800           0
     14308 MEMB     101      DOPC     H13C     HL       0.250000       1.00800           0
     14309 MEMB     101      DOPC     C14      CTL5    -0.350000       12.0110           0
     14310 MEMB     101      DOPC     H14A     HL       0.250000       1.00800           0
     14311 MEMB     101      DOPC     H14B     HL       0.250000       1.00800           0
     14312 MEMB     101      DOPC     H14C     HL       0.250000       1.00800           0
     14313 MEMB     101      DOPC     C15      CTL5    -0.350000       12.0110           0
     14314 MEMB     101      DOPC     H15A     HL       0.250000       1.00800           0
     14315 MEMB     101      DOPC     H15B     HL       0.250000       1.00800           0
     14316 MEMB     101      DOPC     H15C     HL       0.250000       1.00800           0
     14317 MEMB     101      DOPC     C11      CTL2    -0.800000E-01   12.0110           0
     14318 MEMB     101      DOPC     H11A     HAL2     0.900000E-01   1.00800           0
     14319 MEMB     101      DOPC     H11B     HAL2     0.900000E-01   1.00800           0
     14320 MEMB     101      DOPC     P        PL        1.50000       30.9740           0
     14321 MEMB     101      DOPC     O13      O2L     -0.780000       15.9994           0
     14322 MEMB     101      DOPC     O14      O2L     -0.780000       15.9994           0
     14323 MEMB     101      DOPC     O12      OSLP    -0.570000       15.9994           0
     14324 MEMB     101      DOPC     O11      OSLP    -0.570000       15.9994           0
     14325 MEMB     101      DOPC     C1       CTL2    -0.800000E-01   12.0110           0
     14326 MEMB     101      DOPC     HA       HAL2     0.900000E-01   1.00800           0
     14327 MEMB     101      DOPC     HB       HAL2     0.900000E-01   1.00800           0
     14328 MEMB     101      DOPC     C2       CTL1     0.170000       12.0110           0
     14329 MEMB     101      DOPC     HS       HAL1     0.900000E-01   1.00800           0
     14330 MEMB     101      DOPC     O21      OSL     -0.490000       15.9994           0
     14331 MEMB     101      DOPC     C21      CL       0.900000       12.0110           0
     14332 MEMB     101      DOPC     O22      OBL     -0.630000       15.9994           0
     14333 MEMB     101      DOPC     C22      CTL2    -0.220000       12.0110           0
     14334 MEMB     101      DOPC     H2R      HAL2     0.900000E-01   1.00800           0
     14335 MEMB     101      DOPC     H2S      HAL2     0.900000E-01   1.00800           0
     14336 MEMB     101      DOPC     C3       CTL2     0.800000E-01   12.0110           0
     14337 MEMB     101      DOPC     HX       HAL2     0.900000E-01   1.00800           0
     14338 MEMB     101      DOPC     HY       HAL2     0.900000E-01   1.00800           0
     14339 MEMB     101      DOPC     O31      OSL     -0.490000       15.9994           0
     14340 MEMB     101      DOPC     C31      CL       0.900000       12.0110           0
     14341 MEMB     101      DOPC     O32      OBL     -0.630000       15.9994           0
     14342 MEMB     101      DOPC     C32      CTL2    -0.220000       12.0110           0
     14343 MEMB     101      DOPC     H2X      HAL2     0.900000E-01   1.00800           0
     14344 MEMB     101      DOPC     H2Y      HAL2     0.900000E-01   1.00800           0
     14345 MEMB     101      DOPC     C23      CTL2    -0.180000       12.0110           0
     14346 MEMB     101      DOPC     H3R      HAL2     0.900000E-01   1.00800           0
     14347 MEMB     101      DOPC     H3S      HAL2     0.900000E-01   1.00800           0
     14348 MEMB     101      DOPC     C24      CTL2    -0.180000       12.0110           0
     14349 MEMB     101      DOPC     H4R      HAL2     0.900000E-01   1.00800           0
     14350 MEMB     101      DOPC     H4S      HAL2     0.900000E-01   1.00800           0
     14351 MEMB     101      DOPC     C25      CTL2    -0.180000       12.0110           0
     14352 MEMB     101      DOPC     H5R      HAL2     0.900000E-01   1.00800           0
     14353 MEMB     101      DOPC     H5S      HAL2     0.900000E-01   1.00800           0
     14354 MEMB     101      DOPC     C26      CTL2    -0.180000       12.0110           0
     14355 MEMB     101      DOPC     H6R      HAL2     0.900000E-01   1.00800           0
     14356 MEMB     101      DOPC     H6S      HAL2     0.900000E-01   1.00800           0
     14357 MEMB     101      DOPC     C27      CTL2    -0.180000       12.0110           0
     14358 MEMB     101      DOPC     H7R      HAL2     0.900000E-01   1.00800           0
     14359 MEMB     101      DOPC     H7S      HAL2     0.900000E-01   1.00800           0
     14360 MEMB     101      DOPC     C28      CTL2    -0.180000       12.0110           0
     14361 MEMB     101      DOPC     H8R      HAL2     0.900000E-01   1.00800           0
     14362 MEMB     101      DOPC     H8S      HAL2     0.900000E-01   1.00800           0
     14363 MEMB     101      DOPC     C29      CEL1    -0.150000       12.0110           0
     14364 MEMB     101      DOPC     H9R      HEL1     0.150000       1.00800           0
     14365 MEMB     101      DOPC     C210     CEL1    -0.150000       12.0110           0
     14366 MEMB     101      DOPC     H10R     HEL1     0.150000       1.00800           0
     14367 MEMB     101      DOPC     C211     CTL2    -0.180000       12.0110           0
     14368 MEMB     101      DOPC     H11R     HAL2     0.900000E-01   1.00800           0
     14369 MEMB     101      DOPC     H11S     HAL2     0.900000E-01   1.00800           0
     14370 MEMB     101      DOPC     C212     CTL2    -0.180000       12.0110           0
     14371 MEMB     101      DOPC     H12R     HAL2     0.900000E-01   1.00800           0
     14372 MEMB     101      DOPC     H12S     HAL2     0.900000E-01   1.00800           0
     14373 MEMB     101      DOPC     C213     CTL2    -0.180000       12.0110           0
     14374 MEMB     101      DOPC     H13R     HAL2     0.900000E-01   1.00800           0
     14375 MEMB     101      DOPC     H13S     HAL2     0.900000E-01   1.00800           0
     14376 MEMB     101      DOPC     C214     CTL2    -0.180000       12.0110           0
     14377 MEMB     101      DOPC     H14R     HAL2     0.900000E-01   1.00800           0
     14378 MEMB     101      DOPC     H14S     HAL2     0.900000E-01   1.00800           0
     14379 MEMB     101      DOPC     C215     CTL2    -0.180000       12.0110           0
     14380 MEMB     101      DOPC     H15R     HAL2     0.900000E-01   1.00800           0
     14381 MEMB     101      DOPC     H15S     HAL2     0.900000E-01   1.00800           0
     14382 MEMB     101      DOPC     C216     CTL2    -0.180000       12.0110           0
     14383 MEMB     101      DOPC     H16R     HAL2     0.900000E-01   1.00800           0
     14384 MEMB     101      DOPC     H16S     HAL2     0.900000E-01   1.00800           0
     14385 MEMB     101      DOPC     C217     CTL2    -0.180000       12.0110           0
     14386 MEMB     101      DOPC     H17R     HAL2     0.900000E-01   1.00800           0
     14387 MEMB     101      DOPC     H17S     HAL2     0.900000E-01   1.00800           0
     14388 MEMB     101      DOPC     C218     CTL3    -0.270000       12.0110           0
     14389 MEMB     101      DOPC     H18R     HAL3     0.900000E-01   1.00800           0
     14390 MEMB     101      DOPC     H18S     HAL3     0.900000E-01   1.00800           0
     14391 MEMB     101      DOPC     H18T     HAL3     0.900000E-01   1.00800           0
     14392 MEMB     101      DOPC     C33      CTL2    -0.180000       12.0110           0
     14393 MEMB     101      DOPC     H3X      HAL2     0.900000E-01   1.00800           0
     14394 MEMB     101      DOPC     H3Y      HAL2     0.900000E-01   1.00800           0
     14395 MEMB     101      DOPC     C34      CTL2    -0.180000       12.0110           0
     14396 MEMB     101      DOPC     H4X      HAL2     0.900000E-01   1.00800           0
     14397 MEMB     101      DOPC     H4Y      HAL2     0.900000E-01   1.00800           0
     14398 MEMB     101      DOPC     C35      CTL2    -0.180000       12.0110           0
     14399 MEMB     101      DOPC     H5X      HAL2     0.900000E-01   1.00800           0
     14400 MEMB     101      DOPC     H5Y      HAL2     0.900000E-01   1.00800           0
     14401 MEMB     101      DOPC     C36      CTL2    -0.180000       12.0110           0
     14402 MEMB     101      DOPC     H6X      HAL2     0.900000E-01   1.00800           0
     14403 MEMB     101      DOPC     H6Y      HAL2     0.900000E-01   1.00800           0
     14404 MEMB     101      DOPC     C37      CTL2    -0.180000       12.0110           0
     14405 MEMB     101      DOPC     H7X      HAL2     0.900000E-01   1.00800           0
     14406 MEMB     101      DOPC     H7Y      HAL2     0.900000E-01   1.00800           0
     14407 MEMB     101      DOPC     C38      CTL2    -0.180000       12.0110           0
     14408 MEMB     101      DOPC     H8X      HAL2     0.900000E-01   1.00800           0
     14409 MEMB     101      DOPC     H8Y      HAL2     0.900000E-01   1.00800           0
     14410 MEMB     101      DOPC     C39      CEL1    -0.150000       12.0110           0
     14411 MEMB     101      DOPC     H9X      HEL1     0.150000       1.00800           0
     14412 MEMB     101      DOPC     C310     CEL1    -0.150000       12.0110           0
     14413 MEMB     101      DOPC     H10X     HEL1     0.150000       1.00800           0
     14414 MEMB     101      DOPC     C311     CTL2    -0.180000       12.0110           0
     14415 MEMB     101      DOPC     H11X     HAL2     0.900000E-01   1.00800           0
     14416 MEMB     101      DOPC     H11Y     HAL2     0.900000E-01   1.00800           0
     14417 MEMB     101      DOPC     C312     CTL2    -0.180000       12.0110           0
     14418 MEMB     101      DOPC     H12X     HAL2     0.900000E-01   1.00800           0
     14419 MEMB     101      DOPC     H12Y     HAL2     0.900000E-01   1.00800           0
     14420 MEMB     101      DOPC     C313     CTL2    -0.180000       12.0110           0
     14421 MEMB     101      DOPC     H13X     HAL2     0.900000E-01   1.00800           0
     14422 MEMB     101      DOPC     H13Y     HAL2     0.900000E-01   1.00800           0
     14423 MEMB     101      DOPC     C314     CTL2    -0.180000       12.0110           0
     14424 MEMB     101      DOPC     H14X     HAL2     0.900000E-01   1.00800           0
     14425 MEMB     101      DOPC     H14Y     HAL2     0.900000E-01   1.00800           0
     14426 MEMB     101      DOPC     C315     CTL2    -0.180000       12.0110           0
     14427 MEMB     101      DOPC     H15X     HAL2     0.900000E-01   1.00800           0
     14428 MEMB     101      DOPC     H15Y     HAL2     0.900000E-01   1.00800           0
     14429 MEMB     101      DOPC     C316     CTL2    -0.180000       12.0110           0
     14430 MEMB     101      DOPC     H16X     HAL2     0.900000E-01   1.00800           0
     14431 MEMB     101      DOPC     H16Y     HAL2     0.900000E-01   1.00800           0
     14432 MEMB     101      DOPC     C317     CTL2    -0.180000       12.0110           0
     14433 MEMB     101      DOPC     H17X     HAL2     0.900000E-01   1.00800           0
     14434 MEMB     101      DOPC     H17Y     HAL2     0.900000E-01   1.00800           0
     14435 MEMB     101      DOPC     C318     CTL3    -0.270000       12.0110           0
     14436 MEMB     101      DOPC     H18X     HAL3     0.900000E-01   1.00800           0
     14437 MEMB     101      DOPC     H18Y     HAL3     0.900000E-01   1.00800           0
     14438 MEMB     101      DOPC     H18Z     HAL3     0.900000E-01   1.00800           0
     14439 MEMB     102      DOPC     N        NTL     -0.600000       14.0070           0
     14440 MEMB     102      DOPC     C12      CTL2    -0.100000       12.0110           0
     14441 MEMB     102      DOPC     H12A     HL       0.250000       1.00800           0
     14442 MEMB     102      DOPC     H12B     HL       0.250000       1.00800           0
     14443 MEMB     102      DOPC     C13      CTL5    -0.350000       12.0110           0
     14444 MEMB     102      DOPC     H13A     HL       0.250000       1.00800           0
     14445 MEMB     102      DOPC     H13B     HL       0.250000       1.00800           0
     14446 MEMB     102      DOPC     H13C     HL       0.250000       1.00800           0
     14447 MEMB     102      DOPC     C14      CTL5    -0.350000       12.0110           0
     14448 MEMB     102      DOPC     H14A     HL       0.250000       1.00800           0
     14449 MEMB     102      DOPC     H14B     HL       0.250000       1.00800           0
     14450 MEMB     102      DOPC     H14C     HL       0.250000       1.00800           0
     14451 MEMB     102      DOPC     C15      CTL5    -0.350000       12.0110           0
     14452 MEMB     102      DOPC     H15A     HL       0.250000       1.00800           0
     14453 MEMB     102      DOPC     H15B     HL       0.250000       1.00800           0
     14454 MEMB     102      DOPC     H15C     HL       0.250000       1.00800           0
     14455 MEMB     102      DOPC     C11      CTL2    -0.800000E-01   12.0110           0
     14456 MEMB     102      DOPC     H11A     HAL2     0.900000E-01   1.00800           0
     14457 MEMB     102      DOPC     H11B     HAL2     0.900000E-01   1.00800           0
     14458 MEMB     102      DOPC     P        PL        1.50000       30.9740           0
     14459 MEMB     102      DOPC     O13      O2L     -0.780000       15.9994           0
     14460 MEMB     102      DOPC     O14      O2L     -0.780000       15.9994           0
     14461 MEMB     102      DOPC     O12      OSLP    -0.570000       15.9994           0
     14462 MEMB     102      DOPC     O11      OSLP    -0.570000       15.9994           0
     14463 MEMB     102      DOPC     C1       CTL2    -0.800000E-01   12.0110           0
     14464 MEMB     102      DOPC     HA       HAL2     0.900000E-01   1.00800           0
     14465 MEMB     102      DOPC     HB       HAL2     0.900000E-01   1.00800           0
     14466 MEMB     102      DOPC     C2       CTL1     0.170000       12.0110           0
     14467 MEMB     102      DOPC     HS       HAL1     0.900000E-01   1.00800           0
     14468 MEMB     102      DOPC     O21      OSL     -0.490000       15.9994           0
     14469 MEMB     102      DOPC     C21      CL       0.900000       12.0110           0
     14470 MEMB     102      DOPC     O22      OBL     -0.630000       15.9994           0
     14471 MEMB     102      DOPC     C22      CTL2    -0.220000       12.0110           0
     14472 MEMB     102      DOPC     H2R      HAL2     0.900000E-01   1.00800           0
     14473 MEMB     102      DOPC     H2S      HAL2     0.900000E-01   1.00800           0
     14474 MEMB     102      DOPC     C3       CTL2     0.800000E-01   12.0110           0
     14475 MEMB     102      DOPC     HX       HAL2     0.900000E-01   1.00800           0
     14476 MEMB     102      DOPC     HY       HAL2     0.900000E-01   1.00800           0
     14477 MEMB     102      DOPC     O31      OSL     -0.490000       15.9994           0
     14478 MEMB     102      DOPC     C31      CL       0.900000       12.0110           0
     14479 MEMB     102      DOPC     O32      OBL     -0.630000       15.9994           0
     14480 MEMB     102      DOPC     C32      CTL2    -0.220000       12.0110           0
     14481 MEMB     102      DOPC     H2X      HAL2     0.900000E-01   1.00800           0
     14482 MEMB     102      DOPC     H2Y      HAL2     0.900000E-01   1.00800           0
     14483 MEMB     102      DOPC     C23      CTL2    -0.180000       12.0110           0
     14484 MEMB     102      DOPC     H3R      HAL2     0.900000E-01   1.00800           0
     14485 MEMB     102      DOPC     H3S      HAL2     0.900000E-01   1.00800           0
     14486 MEMB     102      DOPC     C24      CTL2    -0.180000       12.0110           0
     14487 MEMB     102      DOPC     H4R      HAL2     0.900000E-01   1.00800           0
     14488 MEMB     102      DOPC     H4S      HAL2     0.900000E-01   1.00800           0
     14489 MEMB     102      DOPC     C25      CTL2    -0.180000       12.0110           0
     14490 MEMB     102      DOPC     H5R      HAL2     0.900000E-01   1.00800           0
     14491 MEMB     102      DOPC     H5S      HAL2     0.900000E-01   1.00800           0
     14492 MEMB     102      DOPC     C26      CTL2    -0.180000       12.0110           0
     14493 MEMB     102      DOPC     H6R      HAL2     0.900000E-01   1.00800           0
     14494 MEMB     102      DOPC     H6S      HAL2     0.900000E-01   1.00800           0
     14495 MEMB     102      DOPC     C27      CTL2    -0.180000       12.0110           0
     14496 MEMB     102      DOPC     H7R      HAL2     0.900000E-01   1.00800           0
     14497 MEMB     102      DOPC     H7S      HAL2     0.900000E-01   1.00800           0
     14498 MEMB     102      DOPC     C28      CTL2    -0.180000       12.0110           0
     14499 MEMB     102      DOPC     H8R      HAL2     0.900000E-01   1.00800           0
     14500 MEMB     102      DOPC     H8S      HAL2     0.900000E-01   1.00800           0
     14501 MEMB     102      DOPC     C29      CEL1    -0.150000       12.0110           0
     14502 MEMB     102      DOPC     H9R      HEL1     0.150000       1.00800           0
     14503 MEMB     102      DOPC     C210     CEL1    -0.150000       12.0110           0
     14504 MEMB     102      DOPC     H10R     HEL1     0.150000       1.00800           0
     14505 MEMB     102      DOPC     C211     CTL2    -0.180000       12.0110           0
     14506 MEMB     102      DOPC     H11R     HAL2     0.900000E-01   1.00800           0
     14507 MEMB     102      DOPC     H11S     HAL2     0.900000E-01   1.00800           0
     14508 MEMB     102      DOPC     C212     CTL2    -0.180000       12.0110           0
     14509 MEMB     102      DOPC     H12R     HAL2     0.900000E-01   1.00800           0
     14510 MEMB     102      DOPC     H12S     HAL2     0.900000E-01   1.00800           0
     14511 MEMB     102      DOPC     C213     CTL2    -0.180000       12.0110           0
     14512 MEMB     102      DOPC     H13R     HAL2     0.900000E-01   1.00800           0
     14513 MEMB     102      DOPC     H13S     HAL2     0.900000E-01   1.00800           0
     14514 MEMB     102      DOPC     C214     CTL2    -0.180000       12.0110           0
     14515 MEMB     102      DOPC     H14R     HAL2     0.900000E-01   1.00800           0
     14516 MEMB     102      DOPC     H14S     HAL2     0.900000E-01   1.00800           0
     14517 MEMB     102      DOPC     C215     CTL2    -0.180000       12.0110           0
     14518 MEMB     102      DOPC     H15R     HAL2     0.900000E-01   1.00800           0
     14519 MEMB     102      DOPC     H15S     HAL2     0.900000E-01   1.00800           0
     14520 MEMB     102      DOPC     C216     CTL2    -0.180000       12.0110           0
     14521 MEMB     102      DOPC     H16R     HAL2     0.900000E-01   1.00800           0
     14522 MEMB     102      DOPC     H16S     HAL2     0.900000E-01   1.00800           0
     14523 MEMB     102      DOPC     C217     CTL2    -0.180000       12.0110           0
     14524 MEMB     102      DOPC     H17R     HAL2     0.900000E-01   1.00800           0
     14525 MEMB     102      DOPC     H17S     HAL2     0.900000E-01   1.00800           0
     14526 MEMB     102      DOPC     C218     CTL3    -0.270000       12.0110           0
     14527 MEMB     102      DOPC     H18R     HAL3     0.900000E-01   1.00800           0
     14528 MEMB     102      DOPC     H18S     HAL3     0.900000E-01   1.00800           0
     14529 MEMB     102      DOPC     H18T     HAL3     0.900000E-01   1.00800           0
     14530 MEMB     102      DOPC     C33      CTL2    -0.180000       12.0110           0
     14531 MEMB     102      DOPC     H3X      HAL2     0.900000E-01   1.00800           0
     14532 MEMB     102      DOPC     H3Y      HAL2     0.900000E-01   1.00800           0
     14533 MEMB     102      DOPC     C34      CTL2    -0.180000       12.0110           0
     14534 MEMB     102      DOPC     H4X      HAL2     0.900000E-01   1.00800           0
     14535 MEMB     102      DOPC     H4Y      HAL2     0.900000E-01   1.00800           0
     14536 MEMB     102      DOPC     C35      CTL2    -0.180000       12.0110           0
     14537 MEMB     102      DOPC     H5X      HAL2     0.900000E-01   1.00800           0
     14538 MEMB     102      DOPC     H5Y      HAL2     0.900000E-01   1.00800           0
     14539 MEMB     102      DOPC     C36      CTL2    -0.180000       12.0110           0
     14540 MEMB     102      DOPC     H6X      HAL2     0.900000E-01   1.00800           0
     14541 MEMB     102      DOPC     H6Y      HAL2     0.900000E-01   1.00800           0
     14542 MEMB     102      DOPC     C37      CTL2    -0.180000       12.0110           0
     14543 MEMB     102      DOPC     H7X      HAL2     0.900000E-01   1.00800           0
     14544 MEMB     102      DOPC     H7Y      HAL2     0.900000E-01   1.00800           0
     14545 MEMB     102      DOPC     C38      CTL2    -0.180000       12.0110           0
     14546 MEMB     102      DOPC     H8X      HAL2     0.900000E-01   1.00800           0
     14547 MEMB     102      DOPC     H8Y      HAL2     0.900000E-01   1.00800           0
     14548 MEMB     102      DOPC     C39      CEL1    -0.150000       12.0110           0
     14549 MEMB     102      DOPC     H9X      HEL1     0.150000       1.00800           0
     14550 MEMB     102      DOPC     C310     CEL1    -0.150000       12.0110           0
     14551 MEMB     102      DOPC     H10X     HEL1     0.150000       1.00800           0
     14552 MEMB     102      DOPC     C311     CTL2    -0.180000       12.0110           0
     14553 MEMB     102      DOPC     H11X     HAL2     0.900000E-01   1.00800           0
     14554 MEMB     102      DOPC     H11Y     HAL2     0.900000E-01   1.00800           0
     14555 MEMB     102      DOPC     C312     CTL2    -0.180000       12.0110           0
     14556 MEMB     102      DOPC     H12X     HAL2     0.900000E-01   1.00800           0
     14557 MEMB     102      DOPC     H12Y     HAL2     0.900000E-01   1.00800           0
     14558 MEMB     102      DOPC     C313     CTL2    -0.180000       12.0110           0
     14559 MEMB     102      DOPC     H13X     HAL2     0.900000E-01   1.00800           0
     14560 MEMB     102      DOPC     H13Y     HAL2     0.900000E-01   1.00800           0
     14561 MEMB     102      DOPC     C314     CTL2    -0.180000       12.0110           0
     14562 MEMB     102      DOPC     H14X     HAL2     0.900000E-01   1.00800           0
     14563 MEMB     102      DOPC     H14Y     HAL2     0.900000E-01   1.00800           0
     14564 MEMB     102      DOPC     C315     CTL2    -0.180000       12.0110           0
     14565 MEMB     102      DOPC     H15X     HAL2     0.900000E-01   1.00800           0
     14566 MEMB     102      DOPC     H15Y     HAL2     0.900000E-01   1.00800           0
     14567 MEMB     102      DOPC     C316     CTL2    -0.180000       12.0110           0
     14568 MEMB     102      DOPC     H16X     HAL2     0.900000E-01   1.00800           0
     14569 MEMB     102      DOPC     H16Y     HAL2     0.900000E-01   1.00800           0
     14570 MEMB     102      DOPC     C317     CTL2    -0.180000       12.0110           0
     14571 MEMB     102      DOPC     H17X     HAL2     0.900000E-01   1.00800           0
     14572 MEMB     102      DOPC     H17Y     HAL2     0.900000E-01   1.00800           0
     14573 MEMB     102      DOPC     C318     CTL3    -0.270000       12.0110           0
     14574 MEMB     102      DOPC     H18X     HAL3     0.900000E-01   1.00800           0
     14575 MEMB     102      DOPC     H18Y     HAL3     0.900000E-01   1.00800           0
     14576 MEMB     102      DOPC     H18Z     HAL3     0.900000E-01   1.00800           0
     14577 MEMB     103      DOPC     N        NTL     -0.600000       14.0070           0
     14578 MEMB     103      DOPC     C12      CTL2    -0.100000       12.0110           0
     14579 MEMB     103      DOPC     H12A     HL       0.250000       1.00800           0
     14580 MEMB     103      DOPC     H12B     HL       0.250000       1.00800           0
     14581 MEMB     103      DOPC     C13      CTL5    -0.350000       12.0110           0
     14582 MEMB     103      DOPC     H13A     HL       0.250000       1.00800           0
     14583 MEMB     103      DOPC     H13B     HL       0.250000       1.00800           0
     14584 MEMB     103      DOPC     H13C     HL       0.250000       1.00800           0
     14585 MEMB     103      DOPC     C14      CTL5    -0.350000       12.0110           0
     14586 MEMB     103      DOPC     H14A     HL       0.250000       1.00800           0
     14587 MEMB     103      DOPC     H14B     HL       0.250000       1.00800           0
     14588 MEMB     103      DOPC     H14C     HL       0.250000       1.00800           0
     14589 MEMB     103      DOPC     C15      CTL5    -0.350000       12.0110           0
     14590 MEMB     103      DOPC     H15A     HL       0.250000       1.00800           0
     14591 MEMB     103      DOPC     H15B     HL       0.250000       1.00800           0
     14592 MEMB     103      DOPC     H15C     HL       0.250000       1.00800           0
     14593 MEMB     103      DOPC     C11      CTL2    -0.800000E-01   12.0110           0
     14594 MEMB     103      DOPC     H11A     HAL2     0.900000E-01   1.00800           0
     14595 MEMB     103      DOPC     H11B     HAL2     0.900000E-01   1.00800           0
     14596 MEMB     103      DOPC     P        PL        1.50000       30.9740           0
     14597 MEMB     103      DOPC     O13      O2L     -0.780000       15.9994           0
     14598 MEMB     103      DOPC     O14      O2L     -0.780000       15.9994           0
     14599 MEMB     103      DOPC     O12      OSLP    -0.570000       15.9994           0
     14600 MEMB     103      DOPC     O11      OSLP    -0.570000       15.9994           0
     14601 MEMB     103      DOPC     C1       CTL2    -0.800000E-01   12.0110           0
     14602 MEMB     103      DOPC     HA       HAL2     0.900000E-01   1.00800           0
     14603 MEMB     103      DOPC     HB       HAL2     0.900000E-01   1.00800           0
     14604 MEMB     103      DOPC     C2       CTL1     0.170000       12.0110           0
     14605 MEMB     103      DOPC     HS       HAL1     0.900000E-01   1.00800           0
     14606 MEMB     103      DOPC     O21      OSL     -0.490000       15.9994           0
     14607 MEMB     103      DOPC     C21      CL       0.900000       12.0110           0
     14608 MEMB     103      DOPC     O22      OBL     -0.630000       15.9994           0
     14609 MEMB     103      DOPC     C22      CTL2    -0.220000       12.0110           0
     14610 MEMB     103      DOPC     H2R      HAL2     0.900000E-01   1.00800           0
     14611 MEMB     103      DOPC     H2S      HAL2     0.900000E-01   1.00800           0
     14612 MEMB     103      DOPC     C3       CTL2     0.800000E-01   12.0110           0
     14613 MEMB     103      DOPC     HX       HAL2     0.900000E-01   1.00800           0
     14614 MEMB     103      DOPC     HY       HAL2     0.900000E-01   1.00800           0
     14615 MEMB     103      DOPC     O31      OSL     -0.490000       15.9994           0
     14616 MEMB     103      DOPC     C31      CL       0.900000       12.0110           0
     14617 MEMB     103      DOPC     O32      OBL     -0.630000       15.9994           0
     14618 MEMB     103      DOPC     C32      CTL2    -0.220000       12.0110           0
     14619 MEMB     103      DOPC     H2X      HAL2     0.900000E-01   1.00800           0
     14620 MEMB     103      DOPC     H2Y      HAL2     0.900000E-01   1.00800           0
     14621 MEMB     103      DOPC     C23      CTL2    -0.180000       12.0110           0
     14622 MEMB     103      DOPC     H3R      HAL2     0.900000E-01   1.00800           0
     14623 MEMB     103      DOPC     H3S      HAL2     0.900000E-01   1.00800           0
     14624 MEMB     103      DOPC     C24      CTL2    -0.180000       12.0110           0
     14625 MEMB     103      DOPC     H4R      HAL2     0.900000E-01   1.00800           0
     14626 MEMB     103      DOPC     H4S      HAL2     0.900000E-01   1.00800           0
     14627 MEMB     103      DOPC     C25      CTL2    -0.180000       12.0110           0
     14628 MEMB     103      DOPC     H5R      HAL2     0.900000E-01   1.00800           0
     14629 MEMB     103      DOPC     H5S      HAL2     0.900000E-01   1.00800           0
     14630 MEMB     103      DOPC     C26      CTL2    -0.180000       12.0110           0
     14631 MEMB     103      DOPC     H6R      HAL2     0.900000E-01   1.00800           0
     14632 MEMB     103      DOPC     H6S      HAL2     0.900000E-01   1.00800           0
     14633 MEMB     103      DOPC     C27      CTL2    -0.180000       12.0110           0
     14634 MEMB     103      DOPC     H7R      HAL2     0.900000E-01   1.00800           0
     14635 MEMB     103      DOPC     H7S      HAL2     0.900000E-01   1.00800           0
     14636 MEMB     103      DOPC     C28      CTL2    -0.180000       12.0110           0
     14637 MEMB     103      DOPC     H8R      HAL2     0.900000E-01   1.00800           0
     14638 MEMB     103      DOPC     H8S      HAL2     0.900000E-01   1.00800           0
     14639 MEMB     103      DOPC     C29      CEL1    -0.150000       12.0110           0
     14640 MEMB     103      DOPC     H9R      HEL1     0.150000       1.00800           0
     14641 MEMB     103      DOPC     C210     CEL1    -0.150000       12.0110           0
     14642 MEMB     103      DOPC     H10R     HEL1     0.150000       1.00800           0
     14643 MEMB     103      DOPC     C211     CTL2    -0.180000       12.0110           0
     14644 MEMB     103      DOPC     H11R     HAL2     0.900000E-01   1.00800           0
     14645 MEMB     103      DOPC     H11S     HAL2     0.900000E-01   1.00800           0
     14646 MEMB     103      DOPC     C212     CTL2    -0.180000       12.0110           0
     14647 MEMB     103      DOPC     H12R     HAL2     0.900000E-01   1.00800           0
     14648 MEMB     103      DOPC     H12S     HAL2     0.900000E-01   1.00800           0
     14649 MEMB     103      DOPC     C213     CTL2    -0.180000       12.0110           0
     14650 MEMB     103      DOPC     H13R     HAL2     0.900000E-01   1.00800           0
     14651 MEMB     103      DOPC     H13S     HAL2     0.900000E-01   1.00800           0
     14652 MEMB     103      DOPC     C214     CTL2    -0.180000       12.0110           0
     14653 MEMB     103      DOPC     H14R     HAL2     0.900000E-01   1.00800           0
     14654 MEMB     103      DOPC     H14S     HAL2     0.900000E-01   1.00800           0
     14655 MEMB     103      DOPC     C215     CTL2    -0.180000       12.0110           0
     14656 MEMB     103      DOPC     H15R     HAL2     0.900000E-01   1.00800           0
     14657 MEMB     103      DOPC     H15S     HAL2     0.900000E-01   1.00800           0
     14658 MEMB     103      DOPC     C216     CTL2    -0.180000       12.0110           0
     14659 MEMB     103      DOPC     H16R     HAL2     0.900000E-01   1.00800           0
     14660 MEMB     103      DOPC     H16S     HAL2     0.900000E-01   1.00800           0
     14661 MEMB     103      DOPC     C217     CTL2    -0.180000       12.0110           0
     14662 MEMB     103      DOPC     H17R     HAL2     0.900000E-01   1.00800           0
     14663 MEMB     103      DOPC     H17S     HAL2     0.900000E-01   1.00800           0
     14664 MEMB     103      DOPC     C218     CTL3    -0.270000       12.0110           0
     14665 MEMB     103      DOPC     H18R     HAL3     0.900000E-01   1.00800           0
     14666 MEMB     103      DOPC     H18S     HAL3     0.900000E-01   1.00800           0
     14667 MEMB     103      DOPC     H18T     HAL3     0.900000E-01   1.00800           0
     14668 MEMB     103      DOPC     C33      CTL2    -0.180000       12.0110           0
     14669 MEMB     103      DOPC     H3X      HAL2     0.900000E-01   1.00800           0
     14670 MEMB     103      DOPC     H3Y      HAL2     0.900000E-01   1.00800           0
     14671 MEMB     103      DOPC     C34      CTL2    -0.180000       12.0110           0
     14672 MEMB     103      DOPC     H4X      HAL2     0.900000E-01   1.00800           0
     14673 MEMB     103      DOPC     H4Y      HAL2     0.900000E-01   1.00800           0
     14674 MEMB     103      DOPC     C35      CTL2    -0.180000       12.0110           0
     14675 MEMB     103      DOPC     H5X      HAL2     0.900000E-01   1.00800           0
     14676 MEMB     103      DOPC     H5Y      HAL2     0.900000E-01   1.00800           0
     14677 MEMB     103      DOPC     C36      CTL2    -0.180000       12.0110           0
     14678 MEMB     103      DOPC     H6X      HAL2     0.900000E-01   1.00800           0
     14679 MEMB     103      DOPC     H6Y      HAL2     0.900000E-01   1.00800           0
     14680 MEMB     103      DOPC     C37      CTL2    -0.180000       12.0110           0
     14681 MEMB     103      DOPC     H7X      HAL2     0.900000E-01   1.00800           0
     14682 MEMB     103      DOPC     H7Y      HAL2     0.900000E-01   1.00800           0
     14683 MEMB     103      DOPC     C38      CTL2    -0.180000       12.0110           0
     14684 MEMB     103      DOPC     H8X      HAL2     0.900000E-01   1.00800           0
     14685 MEMB     103      DOPC     H8Y      HAL2     0.900000E-01   1.00800           0
     14686 MEMB     103      DOPC     C39      CEL1    -0.150000       12.0110           0
     14687 MEMB     103      DOPC     H9X      HEL1     0.150000       1.00800           0
     14688 MEMB     103      DOPC     C310     CEL1    -0.150000       12.0110           0
     14689 MEMB     103      DOPC     H10X     HEL1     0.150000       1.00800           0
     14690 MEMB     103      DOPC     C311     CTL2    -0.180000       12.0110           0
     14691 MEMB     103      DOPC     H11X     HAL2     0.900000E-01   1.00800           0
     14692 MEMB     103      DOPC     H11Y     HAL2     0.900000E-01   1.00800           0
     14693 MEMB     103      DOPC     C312     CTL2    -0.180000       12.0110           0
     14694 MEMB     103      DOPC     H12X     HAL2     0.900000E-01   1.00800           0
     14695 MEMB     103      DOPC     H12Y     HAL2     0.900000E-01   1.00800           0
     14696 MEMB     103      DOPC     C313     CTL2    -0.180000       12.0110           0
     14697 MEMB     103      DOPC     H13X     HAL2     0.900000E-01   1.00800           0
     14698 MEMB     103      DOPC     H13Y     HAL2     0.900000E-01   1.00800           0
     14699 MEMB     103      DOPC     C314     CTL2    -0.180000       12.0110           0
     14700 MEMB     103      DOPC     H14X     HAL2     0.900000E-01   1.00800           0
     14701 MEMB     103      DOPC     H14Y     HAL2     0.900000E-01   1.00800           0
     14702 MEMB     103      DOPC     C315     CTL2    -0.180000       12.0110           0
     14703 MEMB     103      DOPC     H15X     HAL2     0.900000E-01   1.00800           0
     14704 MEMB     103      DOPC     H15Y     HAL2     0.900000E-01   1.00800           0
     14705 MEMB     103      DOPC     C316     CTL2    -0.180000       12.0110           0
     14706 MEMB     103      DOPC     H16X     HAL2     0.900000E-01   1.00800           0
     14707 MEMB     103      DOPC     H16Y     HAL2     0.900000E-01   1.00800           0
     14708 MEMB     103      DOPC     C317     CTL2    -0.180000       12.0110           0
     14709 MEMB     103      DOPC     H17X     HAL2     0.900000E-01   1.00800           0
     14710 MEMB     103      DOPC     H17Y     HAL2     0.900000E-01   1.00800           0
     14711 MEMB     103      DOPC     C318     CTL3    -0.270000       12.0110           0
     14712 MEMB     103      DOPC     H18X     HAL3     0.900000E-01   1.00800           0
     14713 MEMB     103      DOPC     H18Y     HAL3     0.900000E-01   1.00800           0
     14714 MEMB     103      DOPC     H18Z     HAL3     0.900000E-01   1.00800           0
     14715 MEMB     104      DOPC     N        NTL     -0.600000       14.0070           0
     14716 MEMB     104      DOPC     C12      CTL2    -0.100000       12.0110           0
     14717 MEMB     104      DOPC     H12A     HL       0.250000       1.00800           0
     14718 MEMB     104      DOPC     H12B     HL       0.250000       1.00800           0
     14719 MEMB     104      DOPC     C13      CTL5    -0.350000       12.0110           0
     14720 MEMB     104      DOPC     H13A     HL       0.250000       1.00800           0
     14721 MEMB     104      DOPC     H13B     HL       0.250000       1.00800           0
     14722 MEMB     104      DOPC     H13C     HL       0.250000       1.00800           0
     14723 MEMB     104      DOPC     C14      CTL5    -0.350000       12.0110           0
     14724 MEMB     104      DOPC     H14A     HL       0.250000       1.00800           0
     14725 MEMB     104      DOPC     H14B     HL       0.250000       1.00800           0
     14726 MEMB     104      DOPC     H14C     HL       0.250000       1.00800           0
     14727 MEMB     104      DOPC     C15      CTL5    -0.350000       12.0110           0
     14728 MEMB     104      DOPC     H15A     HL       0.250000       1.00800           0
     14729 MEMB     104      DOPC     H15B     HL       0.250000       1.00800           0
     14730 MEMB     104      DOPC     H15C     HL       0.250000       1.00800           0
     14731 MEMB     104      DOPC     C11      CTL2    -0.800000E-01   12.0110           0
     14732 MEMB     104      DOPC     H11A     HAL2     0.900000E-01   1.00800           0
     14733 MEMB     104      DOPC     H11B     HAL2     0.900000E-01   1.00800           0
     14734 MEMB     104      DOPC     P        PL        1.50000       30.9740           0
     14735 MEMB     104      DOPC     O13      O2L     -0.780000       15.9994           0
     14736 MEMB     104      DOPC     O14      O2L     -0.780000       15.9994           0
     14737 MEMB     104      DOPC     O12      OSLP    -0.570000       15.9994           0
     14738 MEMB     104      DOPC     O11      OSLP    -0.570000       15.9994           0
     14739 MEMB     104      DOPC     C1       CTL2    -0.800000E-01   12.0110           0
     14740 MEMB     104      DOPC     HA       HAL2     0.900000E-01   1.00800           0
     14741 MEMB     104      DOPC     HB       HAL2     0.900000E-01   1.00800           0
     14742 MEMB     104      DOPC     C2       CTL1     0.170000       12.0110           0
     14743 MEMB     104      DOPC     HS       HAL1     0.900000E-01   1.00800           0
     14744 MEMB     104      DOPC     O21      OSL     -0.490000       15.9994           0
     14745 MEMB     104      DOPC     C21      CL       0.900000       12.0110           0
     14746 MEMB     104      DOPC     O22      OBL     -0.630000       15.9994           0
     14747 MEMB     104      DOPC     C22      CTL2    -0.220000       12.0110           0
     14748 MEMB     104      DOPC     H2R      HAL2     0.900000E-01   1.00800           0
     14749 MEMB     104      DOPC     H2S      HAL2     0.900000E-01   1.00800           0
     14750 MEMB     104      DOPC     C3       CTL2     0.800000E-01   12.0110           0
     14751 MEMB     104      DOPC     HX       HAL2     0.900000E-01   1.00800           0
     14752 MEMB     104      DOPC     HY       HAL2     0.900000E-01   1.00800           0
     14753 MEMB     104      DOPC     O31      OSL     -0.490000       15.9994           0
     14754 MEMB     104      DOPC     C31      CL       0.900000       12.0110           0
     14755 MEMB     104      DOPC     O32      OBL     -0.630000       15.9994           0
     14756 MEMB     104      DOPC     C32      CTL2    -0.220000       12.0110           0
     14757 MEMB     104      DOPC     H2X      HAL2     0.900000E-01   1.00800           0
     14758 MEMB     104      DOPC     H2Y      HAL2     0.900000E-01   1.00800           0
     14759 MEMB     104      DOPC     C23      CTL2    -0.180000       12.0110           0
     14760 MEMB     104      DOPC     H3R      HAL2     0.900000E-01   1.00800           0
     14761 MEMB     104      DOPC     H3S      HAL2     0.900000E-01   1.00800           0
     14762 MEMB     104      DOPC     C24      CTL2    -0.180000       12.0110           0
     14763 MEMB     104      DOPC     H4R      HAL2     0.900000E-01   1.00800           0
     14764 MEMB     104      DOPC     H4S      HAL2     0.900000E-01   1.00800           0
     14765 MEMB     104      DOPC     C25      CTL2    -0.180000       12.0110           0
     14766 MEMB     104      DOPC     H5R      HAL2     0.900000E-01   1.00800           0
     14767 MEMB     104      DOPC     H5S      HAL2     0.900000E-01   1.00800           0
     14768 MEMB     104      DOPC     C26      CTL2    -0.180000       12.0110           0
     14769 MEMB     104      DOPC     H6R      HAL2     0.900000E-01   1.00800           0
     14770 MEMB     104      DOPC     H6S      HAL2     0.900000E-01   1.00800           0
     14771 MEMB     104      DOPC     C27      CTL2    -0.180000       12.0110           0
     14772 MEMB     104      DOPC     H7R      HAL2     0.900000E-01   1.00800           0
     14773 MEMB     104      DOPC     H7S      HAL2     0.900000E-01   1.00800           0
     14774 MEMB     104      DOPC     C28      CTL2    -0.180000       12.0110           0
     14775 MEMB     104      DOPC     H8R      HAL2     0.900000E-01   1.00800           0
     14776 MEMB     104      DOPC     H8S      HAL2     0.900000E-01   1.00800           0
     14777 MEMB     104      DOPC     C29      CEL1    -0.150000       12.0110           0
     14778 MEMB     104      DOPC     H9R      HEL1     0.150000       1.00800           0
     14779 MEMB     104      DOPC     C210     CEL1    -0.150000       12.0110           0
     14780 MEMB     104      DOPC     H10R     HEL1     0.150000       1.00800           0
     14781 MEMB     104      DOPC     C211     CTL2    -0.180000       12.0110           0
     14782 MEMB     104      DOPC     H11R     HAL2     0.900000E-01   1.00800           0
     14783 MEMB     104      DOPC     H11S     HAL2     0.900000E-01   1.00800           0
     14784 MEMB     104      DOPC     C212     CTL2    -0.180000       12.0110           0
     14785 MEMB     104      DOPC     H12R     HAL2     0.900000E-01   1.00800           0
     14786 MEMB     104      DOPC     H12S     HAL2     0.900000E-01   1.00800           0
     14787 MEMB     104      DOPC     C213     CTL2    -0.180000       12.0110           0
     14788 MEMB     104      DOPC     H13R     HAL2     0.900000E-01   1.00800           0
     14789 MEMB     104      DOPC     H13S     HAL2     0.900000E-01   1.00800           0
     14790 MEMB     104      DOPC     C214     CTL2    -0.180000       12.0110           0
     14791 MEMB     104      DOPC     H14R     HAL2     0.900000E-01   1.00800           0
     14792 MEMB     104      DOPC     H14S     HAL2     0.900000E-01   1.00800           0
     14793 MEMB     104      DOPC     C215     CTL2    -0.180000       12.0110           0
     14794 MEMB     104      DOPC     H15R     HAL2     0.900000E-01   1.00800           0
     14795 MEMB     104      DOPC     H15S     HAL2     0.900000E-01   1.00800           0
     14796 MEMB     104      DOPC     C216     CTL2    -0.180000       12.0110           0
     14797 MEMB     104      DOPC     H16R     HAL2     0.900000E-01   1.00800           0
     14798 MEMB     104      DOPC     H16S     HAL2     0.900000E-01   1.00800           0
     14799 MEMB     104      DOPC     C217     CTL2    -0.180000       12.0110           0
     14800 MEMB     104      DOPC     H17R     HAL2     0.900000E-01   1.00800           0
     14801 MEMB     104      DOPC     H17S     HAL2     0.900000E-01   1.00800           0
     14802 MEMB     104      DOPC     C218     CTL3    -0.270000       12.0110           0
     14803 MEMB     104      DOPC     H18R     HAL3     0.900000E-01   1.00800           0
     14804 MEMB     104      DOPC     H18S     HAL3     0.900000E-01   1.00800           0
     14805 MEMB     104      DOPC     H18T     HAL3     0.900000E-01   1.00800           0
     14806 MEMB     104      DOPC     C33      CTL2    -0.180000       12.0110           0
     14807 MEMB     104      DOPC     H3X      HAL2     0.900000E-01   1.00800           0
     14808 MEMB     104      DOPC     H3Y      HAL2     0.900000E-01   1.00800           0
     14809 MEMB     104      DOPC     C34      CTL2    -0.180000       12.0110           0
     14810 MEMB     104      DOPC     H4X      HAL2     0.900000E-01   1.00800           0
     14811 MEMB     104      DOPC     H4Y      HAL2     0.900000E-01   1.00800           0
     14812 MEMB     104      DOPC     C35      CTL2    -0.180000       12.0110           0
     14813 MEMB     104      DOPC     H5X      HAL2     0.900000E-01   1.00800           0
     14814 MEMB     104      DOPC     H5Y      HAL2     0.900000E-01   1.00800           0
     14815 MEMB     104      DOPC     C36      CTL2    -0.180000       12.0110           0
     14816 MEMB     104      DOPC     H6X      HAL2     0.900000E-01   1.00800           0
     14817 MEMB     104      DOPC     H6Y      HAL2     0.900000E-01   1.00800           0
     14818 MEMB     104      DOPC     C37      CTL2    -0.180000       12.0110           0
     14819 MEMB     104      DOPC     H7X      HAL2     0.900000E-01   1.00800           0
     14820 MEMB     104      DOPC     H7Y      HAL2     0.900000E-01   1.00800           0
     14821 MEMB     104      DOPC     C38      CTL2    -0.180000       12.0110           0
     14822 MEMB     104      DOPC     H8X      HAL2     0.900000E-01   1.00800           0
     14823 MEMB     104      DOPC     H8Y      HAL2     0.900000E-01   1.00800           0
     14824 MEMB     104      DOPC     C39      CEL1    -0.150000       12.0110           0
     14825 MEMB     104      DOPC     H9X      HEL1     0.150000       1.00800           0
     14826 MEMB     104      DOPC     C310     CEL1    -0.150000       12.0110           0
     14827 MEMB     104      DOPC     H10X     HEL1     0.150000       1.00800           0
     14828 MEMB     104      DOPC     C311     CTL2    -0.180000       12.0110           0
     14829 MEMB     104      DOPC     H11X     HAL2     0.900000E-01   1.00800           0
     14830 MEMB     104      DOPC     H11Y     HAL2     0.900000E-01   1.00800           0
     14831 MEMB     104      DOPC     C312     CTL2    -0.180000       12.0110           0
     14832 MEMB     104      DOPC     H12X     HAL2     0.900000E-01   1.00800           0
     14833 MEMB     104      DOPC     H12Y     HAL2     0.900000E-01   1.00800           0
     14834 MEMB     104      DOPC     C313     CTL2    -0.180000       12.0110           0
     14835 MEMB     104      DOPC     H13X     HAL2     0.900000E-01   1.00800           0
     14836 MEMB     104      DOPC     H13Y     HAL2     0.900000E-01   1.00800           0
     14837 MEMB     104      DOPC     C314     CTL2    -0.180000       12.0110           0
     14838 MEMB     104      DOPC     H14X     HAL2     0.900000E-01   1.00800           0
     14839 MEMB     104      DOPC     H14Y     HAL2     0.900000E-01   1.00800           0
     14840 MEMB     104      DOPC     C315     CTL2    -0.180000       12.0110           0
     14841 MEMB     104      DOPC     H15X     HAL2     0.900000E-01   1.00800           0
     14842 MEMB     104      DOPC     H15Y     HAL2     0.900000E-01   1.00800           0
     14843 MEMB     104      DOPC     C316     CTL2    -0.180000       12.0110           0
     14844 MEMB     104      DOPC     H16X     HAL2     0.900000E-01   1.00800           0
     14845 MEMB     104      DOPC     H16Y     HAL2     0.900000E-01   1.00800           0
     14846 MEMB     104      DOPC     C317     CTL2    -0.180000       12.0110           0
     14847 MEMB     104      DOPC     H17X     HAL2     0.900000E-01   1.00800           0
     14848 MEMB     104      DOPC     H17Y     HAL2     0.900000E-01   1.00800           0
     14849 MEMB     104      DOPC     C318     CTL3    -0.270000       12.0110           0
     14850 MEMB     104      DOPC     H18X     HAL3     0.900000E-01   1.00800           0
     14851 MEMB     104      DOPC     H18Y     HAL3     0.900000E-01   1.00800           0
     14852 MEMB     104      DOPC     H18Z     HAL3     0.900000E-01   1.00800           0
     14853 MEMB     105      DOPC     N        NTL     -0.600000       14.0070           0
     14854 MEMB     105      DOPC     C12      CTL2    -0.100000       12.0110           0
     14855 MEMB     105      DOPC     H12A     HL       0.250000       1.00800           0
     14856 MEMB     105      DOPC     H12B     HL       0.250000       1.00800           0
     14857 MEMB     105      DOPC     C13      CTL5    -0.350000       12.0110           0
     14858 MEMB     105      DOPC     H13A     HL       0.250000       1.00800           0
     14859 MEMB     105      DOPC     H13B     HL       0.250000       1.00800           0
     14860 MEMB     105      DOPC     H13C     HL       0.250000       1.00800           0
     14861 MEMB     105      DOPC     C14      CTL5    -0.350000       12.0110           0
     14862 MEMB     105      DOPC     H14A     HL       0.250000       1.00800           0
     14863 MEMB     105      DOPC     H14B     HL       0.250000       1.00800           0
     14864 MEMB     105      DOPC     H14C     HL       0.250000       1.00800           0
     14865 MEMB     105      DOPC     C15      CTL5    -0.350000       12.0110           0
     14866 MEMB     105      DOPC     H15A     HL       0.250000       1.00800           0
     14867 MEMB     105      DOPC     H15B     HL       0.250000       1.00800           0
     14868 MEMB     105      DOPC     H15C     HL       0.250000       1.00800           0
     14869 MEMB     105      DOPC     C11      CTL2    -0.800000E-01   12.0110           0
     14870 MEMB     105      DOPC     H11A     HAL2     0.900000E-01   1.00800           0
     14871 MEMB     105      DOPC     H11B     HAL2     0.900000E-01   1.00800           0
     14872 MEMB     105      DOPC     P        PL        1.50000       30.9740           0
     14873 MEMB     105      DOPC     O13      O2L     -0.780000       15.9994           0
     14874 MEMB     105      DOPC     O14      O2L     -0.780000       15.9994           0
     14875 MEMB     105      DOPC     O12      OSLP    -0.570000       15.9994           0
     14876 MEMB     105      DOPC     O11      OSLP    -0.570000       15.9994           0
     14877 MEMB     105      DOPC     C1       CTL2    -0.800000E-01   12.0110           0
     14878 MEMB     105      DOPC     HA       HAL2     0.900000E-01   1.00800           0
     14879 MEMB     105      DOPC     HB       HAL2     0.900000E-01   1.00800           0
     14880 MEMB     105      DOPC     C2       CTL1     0.170000       12.0110           0
     14881 MEMB     105      DOPC     HS       HAL1     0.900000E-01   1.00800           0
     14882 MEMB     105      DOPC     O21      OSL     -0.490000       15.9994           0
     14883 MEMB     105      DOPC     C21      CL       0.900000       12.0110           0
     14884 MEMB     105      DOPC     O22      OBL     -0.630000       15.9994           0
     14885 MEMB     105      DOPC     C22      CTL2    -0.220000       12.0110           0
     14886 MEMB     105      DOPC     H2R      HAL2     0.900000E-01   1.00800           0
     14887 MEMB     105      DOPC     H2S      HAL2     0.900000E-01   1.00800           0
     14888 MEMB     105      DOPC     C3       CTL2     0.800000E-01   12.0110           0
     14889 MEMB     105      DOPC     HX       HAL2     0.900000E-01   1.00800           0
     14890 MEMB     105      DOPC     HY       HAL2     0.900000E-01   1.00800           0
     14891 MEMB     105      DOPC     O31      OSL     -0.490000       15.9994           0
     14892 MEMB     105      DOPC     C31      CL       0.900000       12.0110           0
     14893 MEMB     105      DOPC     O32      OBL     -0.630000       15.9994           0
     14894 MEMB     105      DOPC     C32      CTL2    -0.220000       12.0110           0
     14895 MEMB     105      DOPC     H2X      HAL2     0.900000E-01   1.00800           0
     14896 MEMB     105      DOPC     H2Y      HAL2     0.900000E-01   1.00800           0
     14897 MEMB     105      DOPC     C23      CTL2    -0.180000       12.0110           0
     14898 MEMB     105      DOPC     H3R      HAL2     0.900000E-01   1.00800           0
     14899 MEMB     105      DOPC     H3S      HAL2     0.900000E-01   1.00800           0
     14900 MEMB     105      DOPC     C24      CTL2    -0.180000       12.0110           0
     14901 MEMB     105      DOPC     H4R      HAL2     0.900000E-01   1.00800           0
     14902 MEMB     105      DOPC     H4S      HAL2     0.900000E-01   1.00800           0
     14903 MEMB     105      DOPC     C25      CTL2    -0.180000       12.0110           0
     14904 MEMB     105      DOPC     H5R      HAL2     0.900000E-01   1.00800           0
     14905 MEMB     105      DOPC     H5S      HAL2     0.900000E-01   1.00800           0
     14906 MEMB     105      DOPC     C26      CTL2    -0.180000       12.0110           0
     14907 MEMB     105      DOPC     H6R      HAL2     0.900000E-01   1.00800           0
     14908 MEMB     105      DOPC     H6S      HAL2     0.900000E-01   1.00800           0
     14909 MEMB     105      DOPC     C27      CTL2    -0.180000       12.0110           0
     14910 MEMB     105      DOPC     H7R      HAL2     0.900000E-01   1.00800           0
     14911 MEMB     105      DOPC     H7S      HAL2     0.900000E-01   1.00800           0
     14912 MEMB     105      DOPC     C28      CTL2    -0.180000       12.0110           0
     14913 MEMB     105      DOPC     H8R      HAL2     0.900000E-01   1.00800           0
     14914 MEMB     105      DOPC     H8S      HAL2     0.900000E-01   1.00800           0
     14915 MEMB     105      DOPC     C29      CEL1    -0.150000       12.0110           0
     14916 MEMB     105      DOPC     H9R      HEL1     0.150000       1.00800           0
     14917 MEMB     105      DOPC     C210     CEL1    -0.150000       12.0110           0
     14918 MEMB     105      DOPC     H10R     HEL1     0.150000       1.00800           0
     14919 MEMB     105      DOPC     C211     CTL2    -0.180000       12.0110           0
     14920 MEMB     105      DOPC     H11R     HAL2     0.900000E-01   1.00800           0
     14921 MEMB     105      DOPC     H11S     HAL2     0.900000E-01   1.00800           0
     14922 MEMB     105      DOPC     C212     CTL2    -0.180000       12.0110           0
     14923 MEMB     105      DOPC     H12R     HAL2     0.900000E-01   1.00800           0
     14924 MEMB     105      DOPC     H12S     HAL2     0.900000E-01   1.00800           0
     14925 MEMB     105      DOPC     C213     CTL2    -0.180000       12.0110           0
     14926 MEMB     105      DOPC     H13R     HAL2     0.900000E-01   1.00800           0
     14927 MEMB     105      DOPC     H13S     HAL2     0.900000E-01   1.00800           0
     14928 MEMB     105      DOPC     C214     CTL2    -0.180000       12.0110           0
     14929 MEMB     105      DOPC     H14R     HAL2     0.900000E-01   1.00800           0
     14930 MEMB     105      DOPC     H14S     HAL2     0.900000E-01   1.00800           0
     14931 MEMB     105      DOPC     C215     CTL2    -0.180000       12.0110           0
     14932 MEMB     105      DOPC     H15R     HAL2     0.900000E-01   1.00800           0
     14933 MEMB     105      DOPC     H15S     HAL2     0.900000E-01   1.00800           0
     14934 MEMB     105      DOPC     C216     CTL2    -0.180000       12.0110           0
     14935 MEMB     105      DOPC     H16R     HAL2     0.900000E-01   1.00800           0
     14936 MEMB     105      DOPC     H16S     HAL2     0.900000E-01   1.00800           0
     14937 MEMB     105      DOPC     C217     CTL2    -0.180000       12.0110           0
     14938 MEMB     105      DOPC     H17R     HAL2     0.900000E-01   1.00800           0
     14939 MEMB     105      DOPC     H17S     HAL2     0.900000E-01   1.00800           0
     14940 MEMB     105      DOPC     C218     CTL3    -0.270000       12.0110           0
     14941 MEMB     105      DOPC     H18R     HAL3     0.900000E-01   1.00800           0
     14942 MEMB     105      DOPC     H18S     HAL3     0.900000E-01   1.00800           0
     14943 MEMB     105      DOPC     H18T     HAL3     0.900000E-01   1.00800           0
     14944 MEMB     105      DOPC     C33      CTL2    -0.180000       12.0110           0
     14945 MEMB     105      DOPC     H3X      HAL2     0.900000E-01   1.00800           0
     14946 MEMB     105      DOPC     H3Y      HAL2     0.900000E-01   1.00800           0
     14947 MEMB     105      DOPC     C34      CTL2    -0.180000       12.0110           0
     14948 MEMB     105      DOPC     H4X      HAL2     0.900000E-01   1.00800           0
     14949 MEMB     105      DOPC     H4Y      HAL2     0.900000E-01   1.00800           0
     14950 MEMB     105      DOPC     C35      CTL2    -0.180000       12.0110           0
     14951 MEMB     105      DOPC     H5X      HAL2     0.900000E-01   1.00800           0
     14952 MEMB     105      DOPC     H5Y      HAL2     0.900000E-01   1.00800           0
     14953 MEMB     105      DOPC     C36      CTL2    -0.180000       12.0110           0
     14954 MEMB     105      DOPC     H6X      HAL2     0.900000E-01   1.00800           0
     14955 MEMB     105      DOPC     H6Y      HAL2     0.900000E-01   1.00800           0
     14956 MEMB     105      DOPC     C37      CTL2    -0.180000       12.0110           0
     14957 MEMB     105      DOPC     H7X      HAL2     0.900000E-01   1.00800           0
     14958 MEMB     105      DOPC     H7Y      HAL2     0.900000E-01   1.00800           0
     14959 MEMB     105      DOPC     C38      CTL2    -0.180000       12.0110           0
     14960 MEMB     105      DOPC     H8X      HAL2     0.900000E-01   1.00800           0
     14961 MEMB     105      DOPC     H8Y      HAL2     0.900000E-01   1.00800           0
     14962 MEMB     105      DOPC     C39      CEL1    -0.150000       12.0110           0
     14963 MEMB     105      DOPC     H9X      HEL1     0.150000       1.00800           0
     14964 MEMB     105      DOPC     C310     CEL1    -0.150000       12.0110           0
     14965 MEMB     105      DOPC     H10X     HEL1     0.150000       1.00800           0
     14966 MEMB     105      DOPC     C311     CTL2    -0.180000       12.0110           0
     14967 MEMB     105      DOPC     H11X     HAL2     0.900000E-01   1.00800           0
     14968 MEMB     105      DOPC     H11Y     HAL2     0.900000E-01   1.00800           0
     14969 MEMB     105      DOPC     C312     CTL2    -0.180000       12.0110           0
     14970 MEMB     105      DOPC     H12X     HAL2     0.900000E-01   1.00800           0
     14971 MEMB     105      DOPC     H12Y     HAL2     0.900000E-01   1.00800           0
     14972 MEMB     105      DOPC     C313     CTL2    -0.180000       12.0110           0
     14973 MEMB     105      DOPC     H13X     HAL2     0.900000E-01   1.00800           0
     14974 MEMB     105      DOPC     H13Y     HAL2     0.900000E-01   1.00800           0
     14975 MEMB     105      DOPC     C314     CTL2    -0.180000       12.0110           0
     14976 MEMB     105      DOPC     H14X     HAL2     0.900000E-01   1.00800           0
     14977 MEMB     105      DOPC     H14Y     HAL2     0.900000E-01   1.00800           0
     14978 MEMB     105      DOPC     C315     CTL2    -0.180000       12.0110           0
     14979 MEMB     105      DOPC     H15X     HAL2     0.900000E-01   1.00800           0
     14980 MEMB     105      DOPC     H15Y     HAL2     0.900000E-01   1.00800           0
     14981 MEMB     105      DOPC     C316     CTL2    -0.180000       12.0110           0
     14982 MEMB     105      DOPC     H16X     HAL2     0.900000E-01   1.00800           0
     14983 MEMB     105      DOPC     H16Y     HAL2     0.900000E-01   1.00800           0
     14984 MEMB     105      DOPC     C317     CTL2    -0.180000       12.0110           0
     14985 MEMB     105      DOPC     H17X     HAL2     0.900000E-01   1.00800           0
     14986 MEMB     105      DOPC     H17Y     HAL2     0.900000E-01   1.00800           0
     14987 MEMB     105      DOPC     C318     CTL3    -0.270000       12.0110           0
     14988 MEMB     105      DOPC     H18X     HAL3     0.900000E-01   1.00800           0
     14989 MEMB     105      DOPC     H18Y     HAL3     0.900000E-01   1.00800           0
     14990 MEMB     105      DOPC     H18Z     HAL3     0.900000E-01   1.00800           0
     14991 MEMB     106      DOPC     N        NTL     -0.600000       14.0070           0
     14992 MEMB     106      DOPC     C12      CTL2    -0.100000       12.0110           0
     14993 MEMB     106      DOPC     H12A     HL       0.250000       1.00800           0
     14994 MEMB     106      DOPC     H12B     HL       0.250000       1.00800           0
     14995 MEMB     106      DOPC     C13      CTL5    -0.350000       12.0110           0
     14996 MEMB     106      DOPC     H13A     HL       0.250000       1.00800           0
     14997 MEMB     106      DOPC     H13B     HL       0.250000       1.00800           0
     14998 MEMB     106      DOPC     H13C     HL       0.250000       1.00800           0
     14999 MEMB     106      DOPC     C14      CTL5    -0.350000       12.0110           0
     15000 MEMB     106      DOPC     H14A     HL       0.250000       1.00800           0
     15001 MEMB     106      DOPC     H14B     HL       0.250000       1.00800           0
     15002 MEMB     106      DOPC     H14C     HL       0.250000       1.00800           0
     15003 MEMB     106      DOPC     C15      CTL5    -0.350000       12.0110           0
     15004 MEMB     106      DOPC     H15A     HL       0.250000       1.00800           0
     15005 MEMB     106      DOPC     H15B     HL       0.250000       1.00800           0
     15006 MEMB     106      DOPC     H15C     HL       0.250000       1.00800           0
     15007 MEMB     106      DOPC     C11      CTL2    -0.800000E-01   12.0110           0
     15008 MEMB     106      DOPC     H11A     HAL2     0.900000E-01   1.00800           0
     15009 MEMB     106      DOPC     H11B     HAL2     0.900000E-01   1.00800           0
     15010 MEMB     106      DOPC     P        PL        1.50000       30.9740           0
     15011 MEMB     106      DOPC     O13      O2L     -0.780000       15.9994           0
     15012 MEMB     106      DOPC     O14      O2L     -0.780000       15.9994           0
     15013 MEMB     106      DOPC     O12      OSLP    -0.570000       15.9994           0
     15014 MEMB     106      DOPC     O11      OSLP    -0.570000       15.9994           0
     15015 MEMB     106      DOPC     C1       CTL2    -0.800000E-01   12.0110           0
     15016 MEMB     106      DOPC     HA       HAL2     0.900000E-01   1.00800           0
     15017 MEMB     106      DOPC     HB       HAL2     0.900000E-01   1.00800           0
     15018 MEMB     106      DOPC     C2       CTL1     0.170000       12.0110           0
     15019 MEMB     106      DOPC     HS       HAL1     0.900000E-01   1.00800           0
     15020 MEMB     106      DOPC     O21      OSL     -0.490000       15.9994           0
     15021 MEMB     106      DOPC     C21      CL       0.900000       12.0110           0
     15022 MEMB     106      DOPC     O22      OBL     -0.630000       15.9994           0
     15023 MEMB     106      DOPC     C22      CTL2    -0.220000       12.0110           0
     15024 MEMB     106      DOPC     H2R      HAL2     0.900000E-01   1.00800           0
     15025 MEMB     106      DOPC     H2S      HAL2     0.900000E-01   1.00800           0
     15026 MEMB     106      DOPC     C3       CTL2     0.800000E-01   12.0110           0
     15027 MEMB     106      DOPC     HX       HAL2     0.900000E-01   1.00800           0
     15028 MEMB     106      DOPC     HY       HAL2     0.900000E-01   1.00800           0
     15029 MEMB     106      DOPC     O31      OSL     -0.490000       15.9994           0
     15030 MEMB     106      DOPC     C31      CL       0.900000       12.0110           0
     15031 MEMB     106      DOPC     O32      OBL     -0.630000       15.9994           0
     15032 MEMB     106      DOPC     C32      CTL2    -0.220000       12.0110           0
     15033 MEMB     106      DOPC     H2X      HAL2     0.900000E-01   1.00800           0
     15034 MEMB     106      DOPC     H2Y      HAL2     0.900000E-01   1.00800           0
     15035 MEMB     106      DOPC     C23      CTL2    -0.180000       12.0110           0
     15036 MEMB     106      DOPC     H3R      HAL2     0.900000E-01   1.00800           0
     15037 MEMB     106      DOPC     H3S      HAL2     0.900000E-01   1.00800           0
     15038 MEMB     106      DOPC     C24      CTL2    -0.180000       12.0110           0
     15039 MEMB     106      DOPC     H4R      HAL2     0.900000E-01   1.00800           0
     15040 MEMB     106      DOPC     H4S      HAL2     0.900000E-01   1.00800           0
     15041 MEMB     106      DOPC     C25      CTL2    -0.180000       12.0110           0
     15042 MEMB     106      DOPC     H5R      HAL2     0.900000E-01   1.00800           0
     15043 MEMB     106      DOPC     H5S      HAL2     0.900000E-01   1.00800           0
     15044 MEMB     106      DOPC     C26      CTL2    -0.180000       12.0110           0
     15045 MEMB     106      DOPC     H6R      HAL2     0.900000E-01   1.00800           0
     15046 MEMB     106      DOPC     H6S      HAL2     0.900000E-01   1.00800           0
     15047 MEMB     106      DOPC     C27      CTL2    -0.180000       12.0110           0
     15048 MEMB     106      DOPC     H7R      HAL2     0.900000E-01   1.00800           0
     15049 MEMB     106      DOPC     H7S      HAL2     0.900000E-01   1.00800           0
     15050 MEMB     106      DOPC     C28      CTL2    -0.180000       12.0110           0
     15051 MEMB     106      DOPC     H8R      HAL2     0.900000E-01   1.00800           0
     15052 MEMB     106      DOPC     H8S      HAL2     0.900000E-01   1.00800           0
     15053 MEMB     106      DOPC     C29      CEL1    -0.150000       12.0110           0
     15054 MEMB     106      DOPC     H9R      HEL1     0.150000       1.00800           0
     15055 MEMB     106      DOPC     C210     CEL1    -0.150000       12.0110           0
     15056 MEMB     106      DOPC     H10R     HEL1     0.150000       1.00800           0
     15057 MEMB     106      DOPC     C211     CTL2    -0.180000       12.0110           0
     15058 MEMB     106      DOPC     H11R     HAL2     0.900000E-01   1.00800           0
     15059 MEMB     106      DOPC     H11S     HAL2     0.900000E-01   1.00800           0
     15060 MEMB     106      DOPC     C212     CTL2    -0.180000       12.0110           0
     15061 MEMB     106      DOPC     H12R     HAL2     0.900000E-01   1.00800           0
     15062 MEMB     106      DOPC     H12S     HAL2     0.900000E-01   1.00800           0
     15063 MEMB     106      DOPC     C213     CTL2    -0.180000       12.0110           0
     15064 MEMB     106      DOPC     H13R     HAL2     0.900000E-01   1.00800           0
     15065 MEMB     106      DOPC     H13S     HAL2     0.900000E-01   1.00800           0
     15066 MEMB     106      DOPC     C214     CTL2    -0.180000       12.0110           0
     15067 MEMB     106      DOPC     H14R     HAL2     0.900000E-01   1.00800           0
     15068 MEMB     106      DOPC     H14S     HAL2     0.900000E-01   1.00800           0
     15069 MEMB     106      DOPC     C215     CTL2    -0.180000       12.0110           0
     15070 MEMB     106      DOPC     H15R     HAL2     0.900000E-01   1.00800           0
     15071 MEMB     106      DOPC     H15S     HAL2     0.900000E-01   1.00800           0
     15072 MEMB     106      DOPC     C216     CTL2    -0.180000       12.0110           0
     15073 MEMB     106      DOPC     H16R     HAL2     0.900000E-01   1.00800           0
     15074 MEMB     106      DOPC     H16S     HAL2     0.900000E-01   1.00800           0
     15075 MEMB     106      DOPC     C217     CTL2    -0.180000       12.0110           0
     15076 MEMB     106      DOPC     H17R     HAL2     0.900000E-01   1.00800           0
     15077 MEMB     106      DOPC     H17S     HAL2     0.900000E-01   1.00800           0
     15078 MEMB     106      DOPC     C218     CTL3    -0.270000       12.0110           0
     15079 MEMB     106      DOPC     H18R     HAL3     0.900000E-01   1.00800           0
     15080 MEMB     106      DOPC     H18S     HAL3     0.900000E-01   1.00800           0
     15081 MEMB     106      DOPC     H18T     HAL3     0.900000E-01   1.00800           0
     15082 MEMB     106      DOPC     C33      CTL2    -0.180000       12.0110           0
     15083 MEMB     106      DOPC     H3X      HAL2     0.900000E-01   1.00800           0
     15084 MEMB     106      DOPC     H3Y      HAL2     0.900000E-01   1.00800           0
     15085 MEMB     106      DOPC     C34      CTL2    -0.180000       12.0110           0
     15086 MEMB     106      DOPC     H4X      HAL2     0.900000E-01   1.00800           0
     15087 MEMB     106      DOPC     H4Y      HAL2     0.900000E-01   1.00800           0
     15088 MEMB     106      DOPC     C35      CTL2    -0.180000       12.0110           0
     15089 MEMB     106      DOPC     H5X      HAL2     0.900000E-01   1.00800           0
     15090 MEMB     106      DOPC     H5Y      HAL2     0.900000E-01   1.00800           0
     15091 MEMB     106      DOPC     C36      CTL2    -0.180000       12.0110           0
     15092 MEMB     106      DOPC     H6X      HAL2     0.900000E-01   1.00800           0
     15093 MEMB     106      DOPC     H6Y      HAL2     0.900000E-01   1.00800           0
     15094 MEMB     106      DOPC     C37      CTL2    -0.180000       12.0110           0
     15095 MEMB     106      DOPC     H7X      HAL2     0.900000E-01   1.00800           0
     15096 MEMB     106      DOPC     H7Y      HAL2     0.900000E-01   1.00800           0
     15097 MEMB     106      DOPC     C38      CTL2    -0.180000       12.0110           0
     15098 MEMB     106      DOPC     H8X      HAL2     0.900000E-01   1.00800           0
     15099 MEMB     106      DOPC     H8Y      HAL2     0.900000E-01   1.00800           0
     15100 MEMB     106      DOPC     C39      CEL1    -0.150000       12.0110           0
     15101 MEMB     106      DOPC     H9X      HEL1     0.150000       1.00800           0
     15102 MEMB     106      DOPC     C310     CEL1    -0.150000       12.0110           0
     15103 MEMB     106      DOPC     H10X     HEL1     0.150000       1.00800           0
     15104 MEMB     106      DOPC     C311     CTL2    -0.180000       12.0110           0
     15105 MEMB     106      DOPC     H11X     HAL2     0.900000E-01   1.00800           0
     15106 MEMB     106      DOPC     H11Y     HAL2     0.900000E-01   1.00800           0
     15107 MEMB     106      DOPC     C312     CTL2    -0.180000       12.0110           0
     15108 MEMB     106      DOPC     H12X     HAL2     0.900000E-01   1.00800           0
     15109 MEMB     106      DOPC     H12Y     HAL2     0.900000E-01   1.00800           0
     15110 MEMB     106      DOPC     C313     CTL2    -0.180000       12.0110           0
     15111 MEMB     106      DOPC     H13X     HAL2     0.900000E-01   1.00800           0
     15112 MEMB     106      DOPC     H13Y     HAL2     0.900000E-01   1.00800           0
     15113 MEMB     106      DOPC     C314     CTL2    -0.180000       12.0110           0
     15114 MEMB     106      DOPC     H14X     HAL2     0.900000E-01   1.00800           0
     15115 MEMB     106      DOPC     H14Y     HAL2     0.900000E-01   1.00800           0
     15116 MEMB     106      DOPC     C315     CTL2    -0.180000       12.0110           0
     15117 MEMB     106      DOPC     H15X     HAL2     0.900000E-01   1.00800           0
     15118 MEMB     106      DOPC     H15Y     HAL2     0.900000E-01   1.00800           0
     15119 MEMB     106      DOPC     C316     CTL2    -0.180000       12.0110           0
     15120 MEMB     106      DOPC     H16X     HAL2     0.900000E-01   1.00800           0
     15121 MEMB     106      DOPC     H16Y     HAL2     0.900000E-01   1.00800           0
     15122 MEMB     106      DOPC     C317     CTL2    -0.180000       12.0110           0
     15123 MEMB     106      DOPC     H17X     HAL2     0.900000E-01   1.00800           0
     15124 MEMB     106      DOPC     H17Y     HAL2     0.900000E-01   1.00800           0
     15125 MEMB     106      DOPC     C318     CTL3    -0.270000       12.0110           0
     15126 MEMB     106      DOPC     H18X     HAL3     0.900000E-01   1.00800           0
     15127 MEMB     106      DOPC     H18Y     HAL3     0.900000E-01   1.00800           0
     15128 MEMB     106      DOPC     H18Z     HAL3     0.900000E-01   1.00800           0
     15129 MEMB     107      DOPC     N        NTL     -0.600000       14.0070           0
     15130 MEMB     107      DOPC     C12      CTL2    -0.100000       12.0110           0
     15131 MEMB     107      DOPC     H12A     HL       0.250000       1.00800           0
     15132 MEMB     107      DOPC     H12B     HL       0.250000       1.00800           0
     15133 MEMB     107      DOPC     C13      CTL5    -0.350000       12.0110           0
     15134 MEMB     107      DOPC     H13A     HL       0.250000       1.00800           0
     15135 MEMB     107      DOPC     H13B     HL       0.250000       1.00800           0
     15136 MEMB     107      DOPC     H13C     HL       0.250000       1.00800           0
     15137 MEMB     107      DOPC     C14      CTL5    -0.350000       12.0110           0
     15138 MEMB     107      DOPC     H14A     HL       0.250000       1.00800           0
     15139 MEMB     107      DOPC     H14B     HL       0.250000       1.00800           0
     15140 MEMB     107      DOPC     H14C     HL       0.250000       1.00800           0
     15141 MEMB     107      DOPC     C15      CTL5    -0.350000       12.0110           0
     15142 MEMB     107      DOPC     H15A     HL       0.250000       1.00800           0
     15143 MEMB     107      DOPC     H15B     HL       0.250000       1.00800           0
     15144 MEMB     107      DOPC     H15C     HL       0.250000       1.00800           0
     15145 MEMB     107      DOPC     C11      CTL2    -0.800000E-01   12.0110           0
     15146 MEMB     107      DOPC     H11A     HAL2     0.900000E-01   1.00800           0
     15147 MEMB     107      DOPC     H11B     HAL2     0.900000E-01   1.00800           0
     15148 MEMB     107      DOPC     P        PL        1.50000       30.9740           0
     15149 MEMB     107      DOPC     O13      O2L     -0.780000       15.9994           0
     15150 MEMB     107      DOPC     O14      O2L     -0.780000       15.9994           0
     15151 MEMB     107      DOPC     O12      OSLP    -0.570000       15.9994           0
     15152 MEMB     107      DOPC     O11      OSLP    -0.570000       15.9994           0
     15153 MEMB     107      DOPC     C1       CTL2    -0.800000E-01   12.0110           0
     15154 MEMB     107      DOPC     HA       HAL2     0.900000E-01   1.00800           0
     15155 MEMB     107      DOPC     HB       HAL2     0.900000E-01   1.00800           0
     15156 MEMB     107      DOPC     C2       CTL1     0.170000       12.0110           0
     15157 MEMB     107      DOPC     HS       HAL1     0.900000E-01   1.00800           0
     15158 MEMB     107      DOPC     O21      OSL     -0.490000       15.9994           0
     15159 MEMB     107      DOPC     C21      CL       0.900000       12.0110           0
     15160 MEMB     107      DOPC     O22      OBL     -0.630000       15.9994           0
     15161 MEMB     107      DOPC     C22      CTL2    -0.220000       12.0110           0
     15162 MEMB     107      DOPC     H2R      HAL2     0.900000E-01   1.00800           0
     15163 MEMB     107      DOPC     H2S      HAL2     0.900000E-01   1.00800           0
     15164 MEMB     107      DOPC     C3       CTL2     0.800000E-01   12.0110           0
     15165 MEMB     107      DOPC     HX       HAL2     0.900000E-01   1.00800           0
     15166 MEMB     107      DOPC     HY       HAL2     0.900000E-01   1.00800           0
     15167 MEMB     107      DOPC     O31      OSL     -0.490000       15.9994           0
     15168 MEMB     107      DOPC     C31      CL       0.900000       12.0110           0
     15169 MEMB     107      DOPC     O32      OBL     -0.630000       15.9994           0
     15170 MEMB     107      DOPC     C32      CTL2    -0.220000       12.0110           0
     15171 MEMB     107      DOPC     H2X      HAL2     0.900000E-01   1.00800           0
     15172 MEMB     107      DOPC     H2Y      HAL2     0.900000E-01   1.00800           0
     15173 MEMB     107      DOPC     C23      CTL2    -0.180000       12.0110           0
     15174 MEMB     107      DOPC     H3R      HAL2     0.900000E-01   1.00800           0
     15175 MEMB     107      DOPC     H3S      HAL2     0.900000E-01   1.00800           0
     15176 MEMB     107      DOPC     C24      CTL2    -0.180000       12.0110           0
     15177 MEMB     107      DOPC     H4R      HAL2     0.900000E-01   1.00800           0
     15178 MEMB     107      DOPC     H4S      HAL2     0.900000E-01   1.00800           0
     15179 MEMB     107      DOPC     C25      CTL2    -0.180000       12.0110           0
     15180 MEMB     107      DOPC     H5R      HAL2     0.900000E-01   1.00800           0
     15181 MEMB     107      DOPC     H5S      HAL2     0.900000E-01   1.00800           0
     15182 MEMB     107      DOPC     C26      CTL2    -0.180000       12.0110           0
     15183 MEMB     107      DOPC     H6R      HAL2     0.900000E-01   1.00800           0
     15184 MEMB     107      DOPC     H6S      HAL2     0.900000E-01   1.00800           0
     15185 MEMB     107      DOPC     C27      CTL2    -0.180000       12.0110           0
     15186 MEMB     107      DOPC     H7R      HAL2     0.900000E-01   1.00800           0
     15187 MEMB     107      DOPC     H7S      HAL2     0.900000E-01   1.00800           0
     15188 MEMB     107      DOPC     C28      CTL2    -0.180000       12.0110           0
     15189 MEMB     107      DOPC     H8R      HAL2     0.900000E-01   1.00800           0
     15190 MEMB     107      DOPC     H8S      HAL2     0.900000E-01   1.00800           0
     15191 MEMB     107      DOPC     C29      CEL1    -0.150000       12.0110           0
     15192 MEMB     107      DOPC     H9R      HEL1     0.150000       1.00800           0
     15193 MEMB     107      DOPC     C210     CEL1    -0.150000       12.0110           0
     15194 MEMB     107      DOPC     H10R     HEL1     0.150000       1.00800           0
     15195 MEMB     107      DOPC     C211     CTL2    -0.180000       12.0110           0
     15196 MEMB     107      DOPC     H11R     HAL2     0.900000E-01   1.00800           0
     15197 MEMB     107      DOPC     H11S     HAL2     0.900000E-01   1.00800           0
     15198 MEMB     107      DOPC     C212     CTL2    -0.180000       12.0110           0
     15199 MEMB     107      DOPC     H12R     HAL2     0.900000E-01   1.00800           0
     15200 MEMB     107      DOPC     H12S     HAL2     0.900000E-01   1.00800           0
     15201 MEMB     107      DOPC     C213     CTL2    -0.180000       12.0110           0
     15202 MEMB     107      DOPC     H13R     HAL2     0.900000E-01   1.00800           0
     15203 MEMB     107      DOPC     H13S     HAL2     0.900000E-01   1.00800           0
     15204 MEMB     107      DOPC     C214     CTL2    -0.180000       12.0110           0
     15205 MEMB     107      DOPC     H14R     HAL2     0.900000E-01   1.00800           0
     15206 MEMB     107      DOPC     H14S     HAL2     0.900000E-01   1.00800           0
     15207 MEMB     107      DOPC     C215     CTL2    -0.180000       12.0110           0
     15208 MEMB     107      DOPC     H15R     HAL2     0.900000E-01   1.00800           0
     15209 MEMB     107      DOPC     H15S     HAL2     0.900000E-01   1.00800           0
     15210 MEMB     107      DOPC     C216     CTL2    -0.180000       12.0110           0
     15211 MEMB     107      DOPC     H16R     HAL2     0.900000E-01   1.00800           0
     15212 MEMB     107      DOPC     H16S     HAL2     0.900000E-01   1.00800           0
     15213 MEMB     107      DOPC     C217     CTL2    -0.180000       12.0110           0
     15214 MEMB     107      DOPC     H17R     HAL2     0.900000E-01   1.00800           0
     15215 MEMB     107      DOPC     H17S     HAL2     0.900000E-01   1.00800           0
     15216 MEMB     107      DOPC     C218     CTL3    -0.270000       12.0110           0
     15217 MEMB     107      DOPC     H18R     HAL3     0.900000E-01   1.00800           0
     15218 MEMB     107      DOPC     H18S     HAL3     0.900000E-01   1.00800           0
     15219 MEMB     107      DOPC     H18T     HAL3     0.900000E-01   1.00800           0
     15220 MEMB     107      DOPC     C33      CTL2    -0.180000       12.0110           0
     15221 MEMB     107      DOPC     H3X      HAL2     0.900000E-01   1.00800           0
     15222 MEMB     107      DOPC     H3Y      HAL2     0.900000E-01   1.00800           0
     15223 MEMB     107      DOPC     C34      CTL2    -0.180000       12.0110           0
     15224 MEMB     107      DOPC     H4X      HAL2     0.900000E-01   1.00800           0
     15225 MEMB     107      DOPC     H4Y      HAL2     0.900000E-01   1.00800           0
     15226 MEMB     107      DOPC     C35      CTL2    -0.180000       12.0110           0
     15227 MEMB     107      DOPC     H5X      HAL2     0.900000E-01   1.00800           0
     15228 MEMB     107      DOPC     H5Y      HAL2     0.900000E-01   1.00800           0
     15229 MEMB     107      DOPC     C36      CTL2    -0.180000       12.0110           0
     15230 MEMB     107      DOPC     H6X      HAL2     0.900000E-01   1.00800           0
     15231 MEMB     107      DOPC     H6Y      HAL2     0.900000E-01   1.00800           0
     15232 MEMB     107      DOPC     C37      CTL2    -0.180000       12.0110           0
     15233 MEMB     107      DOPC     H7X      HAL2     0.900000E-01   1.00800           0
     15234 MEMB     107      DOPC     H7Y      HAL2     0.900000E-01   1.00800           0
     15235 MEMB     107      DOPC     C38      CTL2    -0.180000       12.0110           0
     15236 MEMB     107      DOPC     H8X      HAL2     0.900000E-01   1.00800           0
     15237 MEMB     107      DOPC     H8Y      HAL2     0.900000E-01   1.00800           0
     15238 MEMB     107      DOPC     C39      CEL1    -0.150000       12.0110           0
     15239 MEMB     107      DOPC     H9X      HEL1     0.150000       1.00800           0
     15240 MEMB     107      DOPC     C310     CEL1    -0.150000       12.0110           0
     15241 MEMB     107      DOPC     H10X     HEL1     0.150000       1.00800           0
     15242 MEMB     107      DOPC     C311     CTL2    -0.180000       12.0110           0
     15243 MEMB     107      DOPC     H11X     HAL2     0.900000E-01   1.00800           0
     15244 MEMB     107      DOPC     H11Y     HAL2     0.900000E-01   1.00800           0
     15245 MEMB     107      DOPC     C312     CTL2    -0.180000       12.0110           0
     15246 MEMB     107      DOPC     H12X     HAL2     0.900000E-01   1.00800           0
     15247 MEMB     107      DOPC     H12Y     HAL2     0.900000E-01   1.00800           0
     15248 MEMB     107      DOPC     C313     CTL2    -0.180000       12.0110           0
     15249 MEMB     107      DOPC     H13X     HAL2     0.900000E-01   1.00800           0
     15250 MEMB     107      DOPC     H13Y     HAL2     0.900000E-01   1.00800           0
     15251 MEMB     107      DOPC     C314     CTL2    -0.180000       12.0110           0
     15252 MEMB     107      DOPC     H14X     HAL2     0.900000E-01   1.00800           0
     15253 MEMB     107      DOPC     H14Y     HAL2     0.900000E-01   1.00800           0
     15254 MEMB     107      DOPC     C315     CTL2    -0.180000       12.0110           0
     15255 MEMB     107      DOPC     H15X     HAL2     0.900000E-01   1.00800           0
     15256 MEMB     107      DOPC     H15Y     HAL2     0.900000E-01   1.00800           0
     15257 MEMB     107      DOPC     C316     CTL2    -0.180000       12.0110           0
     15258 MEMB     107      DOPC     H16X     HAL2     0.900000E-01   1.00800           0
     15259 MEMB     107      DOPC     H16Y     HAL2     0.900000E-01   1.00800           0
     15260 MEMB     107      DOPC     C317     CTL2    -0.180000       12.0110           0
     15261 MEMB     107      DOPC     H17X     HAL2     0.900000E-01   1.00800           0
     15262 MEMB     107      DOPC     H17Y     HAL2     0.900000E-01   1.00800           0
     15263 MEMB     107      DOPC     C318     CTL3    -0.270000       12.0110           0
     15264 MEMB     107      DOPC     H18X     HAL3     0.900000E-01   1.00800           0
     15265 MEMB     107      DOPC     H18Y     HAL3     0.900000E-01   1.00800           0
     15266 MEMB     107      DOPC     H18Z     HAL3     0.900000E-01   1.00800           0
     15267 MEMB     108      DOPC     N        NTL     -0.600000       14.0070           0
     15268 MEMB     108      DOPC     C12      CTL2    -0.100000       12.0110           0
     15269 MEMB     108      DOPC     H12A     HL       0.250000       1.00800           0
     15270 MEMB     108      DOPC     H12B     HL       0.250000       1.00800           0
     15271 MEMB     108      DOPC     C13      CTL5    -0.350000       12.0110           0
     15272 MEMB     108      DOPC     H13A     HL       0.250000       1.00800           0
     15273 MEMB     108      DOPC     H13B     HL       0.250000       1.00800           0
     15274 MEMB     108      DOPC     H13C     HL       0.250000       1.00800           0
     15275 MEMB     108      DOPC     C14      CTL5    -0.350000       12.0110           0
     15276 MEMB     108      DOPC     H14A     HL       0.250000       1.00800           0
     15277 MEMB     108      DOPC     H14B     HL       0.250000       1.00800           0
     15278 MEMB     108      DOPC     H14C     HL       0.250000       1.00800           0
     15279 MEMB     108      DOPC     C15      CTL5    -0.350000       12.0110           0
     15280 MEMB     108      DOPC     H15A     HL       0.250000       1.00800           0
     15281 MEMB     108      DOPC     H15B     HL       0.250000       1.00800           0
     15282 MEMB     108      DOPC     H15C     HL       0.250000       1.00800           0
     15283 MEMB     108      DOPC     C11      CTL2    -0.800000E-01   12.0110           0
     15284 MEMB     108      DOPC     H11A     HAL2     0.900000E-01   1.00800           0
     15285 MEMB     108      DOPC     H11B     HAL2     0.900000E-01   1.00800           0
     15286 MEMB     108      DOPC     P        PL        1.50000       30.9740           0
     15287 MEMB     108      DOPC     O13      O2L     -0.780000       15.9994           0
     15288 MEMB     108      DOPC     O14      O2L     -0.780000       15.9994           0
     15289 MEMB     108      DOPC     O12      OSLP    -0.570000       15.9994           0
     15290 MEMB     108      DOPC     O11      OSLP    -0.570000       15.9994           0
     15291 MEMB     108      DOPC     C1       CTL2    -0.800000E-01   12.0110           0
     15292 MEMB     108      DOPC     HA       HAL2     0.900000E-01   1.00800           0
     15293 MEMB     108      DOPC     HB       HAL2     0.900000E-01   1.00800           0
     15294 MEMB     108      DOPC     C2       CTL1     0.170000       12.0110           0
     15295 MEMB     108      DOPC     HS       HAL1     0.900000E-01   1.00800           0
     15296 MEMB     108      DOPC     O21      OSL     -0.490000       15.9994           0
     15297 MEMB     108      DOPC     C21      CL       0.900000       12.0110           0
     15298 MEMB     108      DOPC     O22      OBL     -0.630000       15.9994           0
     15299 MEMB     108      DOPC     C22      CTL2    -0.220000       12.0110           0
     15300 MEMB     108      DOPC     H2R      HAL2     0.900000E-01   1.00800           0
     15301 MEMB     108      DOPC     H2S      HAL2     0.900000E-01   1.00800           0
     15302 MEMB     108      DOPC     C3       CTL2     0.800000E-01   12.0110           0
     15303 MEMB     108      DOPC     HX       HAL2     0.900000E-01   1.00800           0
     15304 MEMB     108      DOPC     HY       HAL2     0.900000E-01   1.00800           0
     15305 MEMB     108      DOPC     O31      OSL     -0.490000       15.9994           0
     15306 MEMB     108      DOPC     C31      CL       0.900000       12.0110           0
     15307 MEMB     108      DOPC     O32      OBL     -0.630000       15.9994           0
     15308 MEMB     108      DOPC     C32      CTL2    -0.220000       12.0110           0
     15309 MEMB     108      DOPC     H2X      HAL2     0.900000E-01   1.00800           0
     15310 MEMB     108      DOPC     H2Y      HAL2     0.900000E-01   1.00800           0
     15311 MEMB     108      DOPC     C23      CTL2    -0.180000       12.0110           0
     15312 MEMB     108      DOPC     H3R      HAL2     0.900000E-01   1.00800           0
     15313 MEMB     108      DOPC     H3S      HAL2     0.900000E-01   1.00800           0
     15314 MEMB     108      DOPC     C24      CTL2    -0.180000       12.0110           0
     15315 MEMB     108      DOPC     H4R      HAL2     0.900000E-01   1.00800           0
     15316 MEMB     108      DOPC     H4S      HAL2     0.900000E-01   1.00800           0
     15317 MEMB     108      DOPC     C25      CTL2    -0.180000       12.0110           0
     15318 MEMB     108      DOPC     H5R      HAL2     0.900000E-01   1.00800           0
     15319 MEMB     108      DOPC     H5S      HAL2     0.900000E-01   1.00800           0
     15320 MEMB     108      DOPC     C26      CTL2    -0.180000       12.0110           0
     15321 MEMB     108      DOPC     H6R      HAL2     0.900000E-01   1.00800           0
     15322 MEMB     108      DOPC     H6S      HAL2     0.900000E-01   1.00800           0
     15323 MEMB     108      DOPC     C27      CTL2    -0.180000       12.0110           0
     15324 MEMB     108      DOPC     H7R      HAL2     0.900000E-01   1.00800           0
     15325 MEMB     108      DOPC     H7S      HAL2     0.900000E-01   1.00800           0
     15326 MEMB     108      DOPC     C28      CTL2    -0.180000       12.0110           0
     15327 MEMB     108      DOPC     H8R      HAL2     0.900000E-01   1.00800           0
     15328 MEMB     108      DOPC     H8S      HAL2     0.900000E-01   1.00800           0
     15329 MEMB     108      DOPC     C29      CEL1    -0.150000       12.0110           0
     15330 MEMB     108      DOPC     H9R      HEL1     0.150000       1.00800           0
     15331 MEMB     108      DOPC     C210     CEL1    -0.150000       12.0110           0
     15332 MEMB     108      DOPC     H10R     HEL1     0.150000       1.00800           0
     15333 MEMB     108      DOPC     C211     CTL2    -0.180000       12.0110           0
     15334 MEMB     108      DOPC     H11R     HAL2     0.900000E-01   1.00800           0
     15335 MEMB     108      DOPC     H11S     HAL2     0.900000E-01   1.00800           0
     15336 MEMB     108      DOPC     C212     CTL2    -0.180000       12.0110           0
     15337 MEMB     108      DOPC     H12R     HAL2     0.900000E-01   1.00800           0
     15338 MEMB     108      DOPC     H12S     HAL2     0.900000E-01   1.00800           0
     15339 MEMB     108      DOPC     C213     CTL2    -0.180000       12.0110           0
     15340 MEMB     108      DOPC     H13R     HAL2     0.900000E-01   1.00800           0
     15341 MEMB     108      DOPC     H13S     HAL2     0.900000E-01   1.00800           0
     15342 MEMB     108      DOPC     C214     CTL2    -0.180000       12.0110           0
     15343 MEMB     108      DOPC     H14R     HAL2     0.900000E-01   1.00800           0
     15344 MEMB     108      DOPC     H14S     HAL2     0.900000E-01   1.00800           0
     15345 MEMB     108      DOPC     C215     CTL2    -0.180000       12.0110           0
     15346 MEMB     108      DOPC     H15R     HAL2     0.900000E-01   1.00800           0
     15347 MEMB     108      DOPC     H15S     HAL2     0.900000E-01   1.00800           0
     15348 MEMB     108      DOPC     C216     CTL2    -0.180000       12.0110           0
     15349 MEMB     108      DOPC     H16R     HAL2     0.900000E-01   1.00800           0
     15350 MEMB     108      DOPC     H16S     HAL2     0.900000E-01   1.00800           0
     15351 MEMB     108      DOPC     C217     CTL2    -0.180000       12.0110           0
     15352 MEMB     108      DOPC     H17R     HAL2     0.900000E-01   1.00800           0
     15353 MEMB     108      DOPC     H17S     HAL2     0.900000E-01   1.00800           0
     15354 MEMB     108      DOPC     C218     CTL3    -0.270000       12.0110           0
     15355 MEMB     108      DOPC     H18R     HAL3     0.900000E-01   1.00800           0
     15356 MEMB     108      DOPC     H18S     HAL3     0.900000E-01   1.00800           0
     15357 MEMB     108      DOPC     H18T     HAL3     0.900000E-01   1.00800           0
     15358 MEMB     108      DOPC     C33      CTL2    -0.180000       12.0110           0
     15359 MEMB     108      DOPC     H3X      HAL2     0.900000E-01   1.00800           0
     15360 MEMB     108      DOPC     H3Y      HAL2     0.900000E-01   1.00800           0
     15361 MEMB     108      DOPC     C34      CTL2    -0.180000       12.0110           0
     15362 MEMB     108      DOPC     H4X      HAL2     0.900000E-01   1.00800           0
     15363 MEMB     108      DOPC     H4Y      HAL2     0.900000E-01   1.00800           0
     15364 MEMB     108      DOPC     C35      CTL2    -0.180000       12.0110           0
     15365 MEMB     108      DOPC     H5X      HAL2     0.900000E-01   1.00800           0
     15366 MEMB     108      DOPC     H5Y      HAL2     0.900000E-01   1.00800           0
     15367 MEMB     108      DOPC     C36      CTL2    -0.180000       12.0110           0
     15368 MEMB     108      DOPC     H6X      HAL2     0.900000E-01   1.00800           0
     15369 MEMB     108      DOPC     H6Y      HAL2     0.900000E-01   1.00800           0
     15370 MEMB     108      DOPC     C37      CTL2    -0.180000       12.0110           0
     15371 MEMB     108      DOPC     H7X      HAL2     0.900000E-01   1.00800           0
     15372 MEMB     108      DOPC     H7Y      HAL2     0.900000E-01   1.00800           0
     15373 MEMB     108      DOPC     C38      CTL2    -0.180000       12.0110           0
     15374 MEMB     108      DOPC     H8X      HAL2     0.900000E-01   1.00800           0
     15375 MEMB     108      DOPC     H8Y      HAL2     0.900000E-01   1.00800           0
     15376 MEMB     108      DOPC     C39      CEL1    -0.150000       12.0110           0
     15377 MEMB     108      DOPC     H9X      HEL1     0.150000       1.00800           0
     15378 MEMB     108      DOPC     C310     CEL1    -0.150000       12.0110           0
     15379 MEMB     108      DOPC     H10X     HEL1     0.150000       1.00800           0
     15380 MEMB     108      DOPC     C311     CTL2    -0.180000       12.0110           0
     15381 MEMB     108      DOPC     H11X     HAL2     0.900000E-01   1.00800           0
     15382 MEMB     108      DOPC     H11Y     HAL2     0.900000E-01   1.00800           0
     15383 MEMB     108      DOPC     C312     CTL2    -0.180000       12.0110           0
     15384 MEMB     108      DOPC     H12X     HAL2     0.900000E-01   1.00800           0
     15385 MEMB     108      DOPC     H12Y     HAL2     0.900000E-01   1.00800           0
     15386 MEMB     108      DOPC     C313     CTL2    -0.180000       12.0110           0
     15387 MEMB     108      DOPC     H13X     HAL2     0.900000E-01   1.00800           0
     15388 MEMB     108      DOPC     H13Y     HAL2     0.900000E-01   1.00800           0
     15389 MEMB     108      DOPC     C314     CTL2    -0.180000       12.0110           0
     15390 MEMB     108      DOPC     H14X     HAL2     0.900000E-01   1.00800           0
     15391 MEMB     108      DOPC     H14Y     HAL2     0.900000E-01   1.00800           0
     15392 MEMB     108      DOPC     C315     CTL2    -0.180000       12.0110           0
     15393 MEMB     108      DOPC     H15X     HAL2     0.900000E-01   1.00800           0
     15394 MEMB     108      DOPC     H15Y     HAL2     0.900000E-01   1.00800           0
     15395 MEMB     108      DOPC     C316     CTL2    -0.180000       12.0110           0
     15396 MEMB     108      DOPC     H16X     HAL2     0.900000E-01   1.00800           0
     15397 MEMB     108      DOPC     H16Y     HAL2     0.900000E-01   1.00800           0
     15398 MEMB     108      DOPC     C317     CTL2    -0.180000       12.0110           0
     15399 MEMB     108      DOPC     H17X     HAL2     0.900000E-01   1.00800           0
     15400 MEMB     108      DOPC     H17Y     HAL2     0.900000E-01   1.00800           0
     15401 MEMB     108      DOPC     C318     CTL3    -0.270000       12.0110           0
     15402 MEMB     108      DOPC     H18X     HAL3     0.900000E-01   1.00800           0
     15403 MEMB     108      DOPC     H18Y     HAL3     0.900000E-01   1.00800           0
     15404 MEMB     108      DOPC     H18Z     HAL3     0.900000E-01   1.00800           0
     15405 MEMB     109      DOPC     N        NTL     -0.600000       14.0070           0
     15406 MEMB     109      DOPC     C12      CTL2    -0.100000       12.0110           0
     15407 MEMB     109      DOPC     H12A     HL       0.250000       1.00800           0
     15408 MEMB     109      DOPC     H12B     HL       0.250000       1.00800           0
     15409 MEMB     109      DOPC     C13      CTL5    -0.350000       12.0110           0
     15410 MEMB     109      DOPC     H13A     HL       0.250000       1.00800           0
     15411 MEMB     109      DOPC     H13B     HL       0.250000       1.00800           0
     15412 MEMB     109      DOPC     H13C     HL       0.250000       1.00800           0
     15413 MEMB     109      DOPC     C14      CTL5    -0.350000       12.0110           0
     15414 MEMB     109      DOPC     H14A     HL       0.250000       1.00800           0
     15415 MEMB     109      DOPC     H14B     HL       0.250000       1.00800           0
     15416 MEMB     109      DOPC     H14C     HL       0.250000       1.00800           0
     15417 MEMB     109      DOPC     C15      CTL5    -0.350000       12.0110           0
     15418 MEMB     109      DOPC     H15A     HL       0.250000       1.00800           0
     15419 MEMB     109      DOPC     H15B     HL       0.250000       1.00800           0
     15420 MEMB     109      DOPC     H15C     HL       0.250000       1.00800           0
     15421 MEMB     109      DOPC     C11      CTL2    -0.800000E-01   12.0110           0
     15422 MEMB     109      DOPC     H11A     HAL2     0.900000E-01   1.00800           0
     15423 MEMB     109      DOPC     H11B     HAL2     0.900000E-01   1.00800           0
     15424 MEMB     109      DOPC     P        PL        1.50000       30.9740           0
     15425 MEMB     109      DOPC     O13      O2L     -0.780000       15.9994           0
     15426 MEMB     109      DOPC     O14      O2L     -0.780000       15.9994           0
     15427 MEMB     109      DOPC     O12      OSLP    -0.570000       15.9994           0
     15428 MEMB     109      DOPC     O11      OSLP    -0.570000       15.9994           0
     15429 MEMB     109      DOPC     C1       CTL2    -0.800000E-01   12.0110           0
     15430 MEMB     109      DOPC     HA       HAL2     0.900000E-01   1.00800           0
     15431 MEMB     109      DOPC     HB       HAL2     0.900000E-01   1.00800           0
     15432 MEMB     109      DOPC     C2       CTL1     0.170000       12.0110           0
     15433 MEMB     109      DOPC     HS       HAL1     0.900000E-01   1.00800           0
     15434 MEMB     109      DOPC     O21      OSL     -0.490000       15.9994           0
     15435 MEMB     109      DOPC     C21      CL       0.900000       12.0110           0
     15436 MEMB     109      DOPC     O22      OBL     -0.630000       15.9994           0
     15437 MEMB     109      DOPC     C22      CTL2    -0.220000       12.0110           0
     15438 MEMB     109      DOPC     H2R      HAL2     0.900000E-01   1.00800           0
     15439 MEMB     109      DOPC     H2S      HAL2     0.900000E-01   1.00800           0
     15440 MEMB     109      DOPC     C3       CTL2     0.800000E-01   12.0110           0
     15441 MEMB     109      DOPC     HX       HAL2     0.900000E-01   1.00800           0
     15442 MEMB     109      DOPC     HY       HAL2     0.900000E-01   1.00800           0
     15443 MEMB     109      DOPC     O31      OSL     -0.490000       15.9994           0
     15444 MEMB     109      DOPC     C31      CL       0.900000       12.0110           0
     15445 MEMB     109      DOPC     O32      OBL     -0.630000       15.9994           0
     15446 MEMB     109      DOPC     C32      CTL2    -0.220000       12.0110           0
     15447 MEMB     109      DOPC     H2X      HAL2     0.900000E-01   1.00800           0
     15448 MEMB     109      DOPC     H2Y      HAL2     0.900000E-01   1.00800           0
     15449 MEMB     109      DOPC     C23      CTL2    -0.180000       12.0110           0
     15450 MEMB     109      DOPC     H3R      HAL2     0.900000E-01   1.00800           0
     15451 MEMB     109      DOPC     H3S      HAL2     0.900000E-01   1.00800           0
     15452 MEMB     109      DOPC     C24      CTL2    -0.180000       12.0110           0
     15453 MEMB     109      DOPC     H4R      HAL2     0.900000E-01   1.00800           0
     15454 MEMB     109      DOPC     H4S      HAL2     0.900000E-01   1.00800           0
     15455 MEMB     109      DOPC     C25      CTL2    -0.180000       12.0110           0
     15456 MEMB     109      DOPC     H5R      HAL2     0.900000E-01   1.00800           0
     15457 MEMB     109      DOPC     H5S      HAL2     0.900000E-01   1.00800           0
     15458 MEMB     109      DOPC     C26      CTL2    -0.180000       12.0110           0
     15459 MEMB     109      DOPC     H6R      HAL2     0.900000E-01   1.00800           0
     15460 MEMB     109      DOPC     H6S      HAL2     0.900000E-01   1.00800           0
     15461 MEMB     109      DOPC     C27      CTL2    -0.180000       12.0110           0
     15462 MEMB     109      DOPC     H7R      HAL2     0.900000E-01   1.00800           0
     15463 MEMB     109      DOPC     H7S      HAL2     0.900000E-01   1.00800           0
     15464 MEMB     109      DOPC     C28      CTL2    -0.180000       12.0110           0
     15465 MEMB     109      DOPC     H8R      HAL2     0.900000E-01   1.00800           0
     15466 MEMB     109      DOPC     H8S      HAL2     0.900000E-01   1.00800           0
     15467 MEMB     109      DOPC     C29      CEL1    -0.150000       12.0110           0
     15468 MEMB     109      DOPC     H9R      HEL1     0.150000       1.00800           0
     15469 MEMB     109      DOPC     C210     CEL1    -0.150000       12.0110           0
     15470 MEMB     109      DOPC     H10R     HEL1     0.150000       1.00800           0
     15471 MEMB     109      DOPC     C211     CTL2    -0.180000       12.0110           0
     15472 MEMB     109      DOPC     H11R     HAL2     0.900000E-01   1.00800           0
     15473 MEMB     109      DOPC     H11S     HAL2     0.900000E-01   1.00800           0
     15474 MEMB     109      DOPC     C212     CTL2    -0.180000       12.0110           0
     15475 MEMB     109      DOPC     H12R     HAL2     0.900000E-01   1.00800           0
     15476 MEMB     109      DOPC     H12S     HAL2     0.900000E-01   1.00800           0
     15477 MEMB     109      DOPC     C213     CTL2    -0.180000       12.0110           0
     15478 MEMB     109      DOPC     H13R     HAL2     0.900000E-01   1.00800           0
     15479 MEMB     109      DOPC     H13S     HAL2     0.900000E-01   1.00800           0
     15480 MEMB     109      DOPC     C214     CTL2    -0.180000       12.0110           0
     15481 MEMB     109      DOPC     H14R     HAL2     0.900000E-01   1.00800           0
     15482 MEMB     109      DOPC     H14S     HAL2     0.900000E-01   1.00800           0
     15483 MEMB     109      DOPC     C215     CTL2    -0.180000       12.0110           0
     15484 MEMB     109      DOPC     H15R     HAL2     0.900000E-01   1.00800           0
     15485 MEMB     109      DOPC     H15S     HAL2     0.900000E-01   1.00800           0
     15486 MEMB     109      DOPC     C216     CTL2    -0.180000       12.0110           0
     15487 MEMB     109      DOPC     H16R     HAL2     0.900000E-01   1.00800           0
     15488 MEMB     109      DOPC     H16S     HAL2     0.900000E-01   1.00800           0
     15489 MEMB     109      DOPC     C217     CTL2    -0.180000       12.0110           0
     15490 MEMB     109      DOPC     H17R     HAL2     0.900000E-01   1.00800           0
     15491 MEMB     109      DOPC     H17S     HAL2     0.900000E-01   1.00800           0
     15492 MEMB     109      DOPC     C218     CTL3    -0.270000       12.0110           0
     15493 MEMB     109      DOPC     H18R     HAL3     0.900000E-01   1.00800           0
     15494 MEMB     109      DOPC     H18S     HAL3     0.900000E-01   1.00800           0
     15495 MEMB     109      DOPC     H18T     HAL3     0.900000E-01   1.00800           0
     15496 MEMB     109      DOPC     C33      CTL2    -0.180000       12.0110           0
     15497 MEMB     109      DOPC     H3X      HAL2     0.900000E-01   1.00800           0
     15498 MEMB     109      DOPC     H3Y      HAL2     0.900000E-01   1.00800           0
     15499 MEMB     109      DOPC     C34      CTL2    -0.180000       12.0110           0
     15500 MEMB     109      DOPC     H4X      HAL2     0.900000E-01   1.00800           0
     15501 MEMB     109      DOPC     H4Y      HAL2     0.900000E-01   1.00800           0
     15502 MEMB     109      DOPC     C35      CTL2    -0.180000       12.0110           0
     15503 MEMB     109      DOPC     H5X      HAL2     0.900000E-01   1.00800           0
     15504 MEMB     109      DOPC     H5Y      HAL2     0.900000E-01   1.00800           0
     15505 MEMB     109      DOPC     C36      CTL2    -0.180000       12.0110           0
     15506 MEMB     109      DOPC     H6X      HAL2     0.900000E-01   1.00800           0
     15507 MEMB     109      DOPC     H6Y      HAL2     0.900000E-01   1.00800           0
     15508 MEMB     109      DOPC     C37      CTL2    -0.180000       12.0110           0
     15509 MEMB     109      DOPC     H7X      HAL2     0.900000E-01   1.00800           0
     15510 MEMB     109      DOPC     H7Y      HAL2     0.900000E-01   1.00800           0
     15511 MEMB     109      DOPC     C38      CTL2    -0.180000       12.0110           0
     15512 MEMB     109      DOPC     H8X      HAL2     0.900000E-01   1.00800           0
     15513 MEMB     109      DOPC     H8Y      HAL2     0.900000E-01   1.00800           0
     15514 MEMB     109      DOPC     C39      CEL1    -0.150000       12.0110           0
     15515 MEMB     109      DOPC     H9X      HEL1     0.150000       1.00800           0
     15516 MEMB     109      DOPC     C310     CEL1    -0.150000       12.0110           0
     15517 MEMB     109      DOPC     H10X     HEL1     0.150000       1.00800           0
     15518 MEMB     109      DOPC     C311     CTL2    -0.180000       12.0110           0
     15519 MEMB     109      DOPC     H11X     HAL2     0.900000E-01   1.00800           0
     15520 MEMB     109      DOPC     H11Y     HAL2     0.900000E-01   1.00800           0
     15521 MEMB     109      DOPC     C312     CTL2    -0.180000       12.0110           0
     15522 MEMB     109      DOPC     H12X     HAL2     0.900000E-01   1.00800           0
     15523 MEMB     109      DOPC     H12Y     HAL2     0.900000E-01   1.00800           0
     15524 MEMB     109      DOPC     C313     CTL2    -0.180000       12.0110           0
     15525 MEMB     109      DOPC     H13X     HAL2     0.900000E-01   1.00800           0
     15526 MEMB     109      DOPC     H13Y     HAL2     0.900000E-01   1.00800           0
     15527 MEMB     109      DOPC     C314     CTL2    -0.180000       12.0110           0
     15528 MEMB     109      DOPC     H14X     HAL2     0.900000E-01   1.00800           0
     15529 MEMB     109      DOPC     H14Y     HAL2     0.900000E-01   1.00800           0
     15530 MEMB     109      DOPC     C315     CTL2    -0.180000       12.0110           0
     15531 MEMB     109      DOPC     H15X     HAL2     0.900000E-01   1.00800           0
     15532 MEMB     109      DOPC     H15Y     HAL2     0.900000E-01   1.00800           0
     15533 MEMB     109      DOPC     C316     CTL2    -0.180000       12.0110           0
     15534 MEMB     109      DOPC     H16X     HAL2     0.900000E-01   1.00800           0
     15535 MEMB     109      DOPC     H16Y     HAL2     0.900000E-01   1.00800           0
     15536 MEMB     109      DOPC     C317     CTL2    -0.180000       12.0110           0
     15537 MEMB     109      DOPC     H17X     HAL2     0.900000E-01   1.00800           0
     15538 MEMB     109      DOPC     H17Y     HAL2     0.900000E-01   1.00800           0
     15539 MEMB     109      DOPC     C318     CTL3    -0.270000       12.0110           0
     15540 MEMB     109      DOPC     H18X     HAL3     0.900000E-01   1.00800           0
     15541 MEMB     109      DOPC     H18Y     HAL3     0.900000E-01   1.00800           0
     15542 MEMB     109      DOPC     H18Z     HAL3     0.900000E-01   1.00800           0
     15543 MEMB     110      DOPC     N        NTL     -0.600000       14.0070           0
     15544 MEMB     110      DOPC     C12      CTL2    -0.100000       12.0110           0
     15545 MEMB     110      DOPC     H12A     HL       0.250000       1.00800           0
     15546 MEMB     110      DOPC     H12B     HL       0.250000       1.00800           0
     15547 MEMB     110      DOPC     C13      CTL5    -0.350000       12.0110           0
     15548 MEMB     110      DOPC     H13A     HL       0.250000       1.00800           0
     15549 MEMB     110      DOPC     H13B     HL       0.250000       1.00800           0
     15550 MEMB     110      DOPC     H13C     HL       0.250000       1.00800           0
     15551 MEMB     110      DOPC     C14      CTL5    -0.350000       12.0110           0
     15552 MEMB     110      DOPC     H14A     HL       0.250000       1.00800           0
     15553 MEMB     110      DOPC     H14B     HL       0.250000       1.00800           0
     15554 MEMB     110      DOPC     H14C     HL       0.250000       1.00800           0
     15555 MEMB     110      DOPC     C15      CTL5    -0.350000       12.0110           0
     15556 MEMB     110      DOPC     H15A     HL       0.250000       1.00800           0
     15557 MEMB     110      DOPC     H15B     HL       0.250000       1.00800           0
     15558 MEMB     110      DOPC     H15C     HL       0.250000       1.00800           0
     15559 MEMB     110      DOPC     C11      CTL2    -0.800000E-01   12.0110           0
     15560 MEMB     110      DOPC     H11A     HAL2     0.900000E-01   1.00800           0
     15561 MEMB     110      DOPC     H11B     HAL2     0.900000E-01   1.00800           0
     15562 MEMB     110      DOPC     P        PL        1.50000       30.9740           0
     15563 MEMB     110      DOPC     O13      O2L     -0.780000       15.9994           0
     15564 MEMB     110      DOPC     O14      O2L     -0.780000       15.9994           0
     15565 MEMB     110      DOPC     O12      OSLP    -0.570000       15.9994           0
     15566 MEMB     110      DOPC     O11      OSLP    -0.570000       15.9994           0
     15567 MEMB     110      DOPC     C1       CTL2    -0.800000E-01   12.0110           0
     15568 MEMB     110      DOPC     HA       HAL2     0.900000E-01   1.00800           0
     15569 MEMB     110      DOPC     HB       HAL2     0.900000E-01   1.00800           0
     15570 MEMB     110      DOPC     C2       CTL1     0.170000       12.0110           0
     15571 MEMB     110      DOPC     HS       HAL1     0.900000E-01   1.00800           0
     15572 MEMB     110      DOPC     O21      OSL     -0.490000       15.9994           0
     15573 MEMB     110      DOPC     C21      CL       0.900000       12.0110           0
     15574 MEMB     110      DOPC     O22      OBL     -0.630000       15.9994           0
     15575 MEMB     110      DOPC     C22      CTL2    -0.220000       12.0110           0
     15576 MEMB     110      DOPC     H2R      HAL2     0.900000E-01   1.00800           0
     15577 MEMB     110      DOPC     H2S      HAL2     0.900000E-01   1.00800           0
     15578 MEMB     110      DOPC     C3       CTL2     0.800000E-01   12.0110           0
     15579 MEMB     110      DOPC     HX       HAL2     0.900000E-01   1.00800           0
     15580 MEMB     110      DOPC     HY       HAL2     0.900000E-01   1.00800           0
     15581 MEMB     110      DOPC     O31      OSL     -0.490000       15.9994           0
     15582 MEMB     110      DOPC     C31      CL       0.900000       12.0110           0
     15583 MEMB     110      DOPC     O32      OBL     -0.630000       15.9994           0
     15584 MEMB     110      DOPC     C32      CTL2    -0.220000       12.0110           0
     15585 MEMB     110      DOPC     H2X      HAL2     0.900000E-01   1.00800           0
     15586 MEMB     110      DOPC     H2Y      HAL2     0.900000E-01   1.00800           0
     15587 MEMB     110      DOPC     C23      CTL2    -0.180000       12.0110           0
     15588 MEMB     110      DOPC     H3R      HAL2     0.900000E-01   1.00800           0
     15589 MEMB     110      DOPC     H3S      HAL2     0.900000E-01   1.00800           0
     15590 MEMB     110      DOPC     C24      CTL2    -0.180000       12.0110           0
     15591 MEMB     110      DOPC     H4R      HAL2     0.900000E-01   1.00800           0
     15592 MEMB     110      DOPC     H4S      HAL2     0.900000E-01   1.00800           0
     15593 MEMB     110      DOPC     C25      CTL2    -0.180000       12.0110           0
     15594 MEMB     110      DOPC     H5R      HAL2     0.900000E-01   1.00800           0
     15595 MEMB     110      DOPC     H5S      HAL2     0.900000E-01   1.00800           0
     15596 MEMB     110      DOPC     C26      CTL2    -0.180000       12.0110           0
     15597 MEMB     110      DOPC     H6R      HAL2     0.900000E-01   1.00800           0
     15598 MEMB     110      DOPC     H6S      HAL2     0.900000E-01   1.00800           0
     15599 MEMB     110      DOPC     C27      CTL2    -0.180000       12.0110           0
     15600 MEMB     110      DOPC     H7R      HAL2     0.900000E-01   1.00800           0
     15601 MEMB     110      DOPC     H7S      HAL2     0.900000E-01   1.00800           0
     15602 MEMB     110      DOPC     C28      CTL2    -0.180000       12.0110           0
     15603 MEMB     110      DOPC     H8R      HAL2     0.900000E-01   1.00800           0
     15604 MEMB     110      DOPC     H8S      HAL2     0.900000E-01   1.00800           0
     15605 MEMB     110      DOPC     C29      CEL1    -0.150000       12.0110           0
     15606 MEMB     110      DOPC     H9R      HEL1     0.150000       1.00800           0
     15607 MEMB     110      DOPC     C210     CEL1    -0.150000       12.0110           0
     15608 MEMB     110      DOPC     H10R     HEL1     0.150000       1.00800           0
     15609 MEMB     110      DOPC     C211     CTL2    -0.180000       12.0110           0
     15610 MEMB     110      DOPC     H11R     HAL2     0.900000E-01   1.00800           0
     15611 MEMB     110      DOPC     H11S     HAL2     0.900000E-01   1.00800           0
     15612 MEMB     110      DOPC     C212     CTL2    -0.180000       12.0110           0
     15613 MEMB     110      DOPC     H12R     HAL2     0.900000E-01   1.00800           0
     15614 MEMB     110      DOPC     H12S     HAL2     0.900000E-01   1.00800           0
     15615 MEMB     110      DOPC     C213     CTL2    -0.180000       12.0110           0
     15616 MEMB     110      DOPC     H13R     HAL2     0.900000E-01   1.00800           0
     15617 MEMB     110      DOPC     H13S     HAL2     0.900000E-01   1.00800           0
     15618 MEMB     110      DOPC     C214     CTL2    -0.180000       12.0110           0
     15619 MEMB     110      DOPC     H14R     HAL2     0.900000E-01   1.00800           0
     15620 MEMB     110      DOPC     H14S     HAL2     0.900000E-01   1.00800           0
     15621 MEMB     110      DOPC     C215     CTL2    -0.180000       12.0110           0
     15622 MEMB     110      DOPC     H15R     HAL2     0.900000E-01   1.00800           0
     15623 MEMB     110      DOPC     H15S     HAL2     0.900000E-01   1.00800           0
     15624 MEMB     110      DOPC     C216     CTL2    -0.180000       12.0110           0
     15625 MEMB     110      DOPC     H16R     HAL2     0.900000E-01   1.00800           0
     15626 MEMB     110      DOPC     H16S     HAL2     0.900000E-01   1.00800           0
     15627 MEMB     110      DOPC     C217     CTL2    -0.180000       12.0110           0
     15628 MEMB     110      DOPC     H17R     HAL2     0.900000E-01   1.00800           0
     15629 MEMB     110      DOPC     H17S     HAL2     0.900000E-01   1.00800           0
     15630 MEMB     110      DOPC     C218     CTL3    -0.270000       12.0110           0
     15631 MEMB     110      DOPC     H18R     HAL3     0.900000E-01   1.00800           0
     15632 MEMB     110      DOPC     H18S     HAL3     0.900000E-01   1.00800           0
     15633 MEMB     110      DOPC     H18T     HAL3     0.900000E-01   1.00800           0
     15634 MEMB     110      DOPC     C33      CTL2    -0.180000       12.0110           0
     15635 MEMB     110      DOPC     H3X      HAL2     0.900000E-01   1.00800           0
     15636 MEMB     110      DOPC     H3Y      HAL2     0.900000E-01   1.00800           0
     15637 MEMB     110      DOPC     C34      CTL2    -0.180000       12.0110           0
     15638 MEMB     110      DOPC     H4X      HAL2     0.900000E-01   1.00800           0
     15639 MEMB     110      DOPC     H4Y      HAL2     0.900000E-01   1.00800           0
     15640 MEMB     110      DOPC     C35      CTL2    -0.180000       12.0110           0
     15641 MEMB     110      DOPC     H5X      HAL2     0.900000E-01   1.00800           0
     15642 MEMB     110      DOPC     H5Y      HAL2     0.900000E-01   1.00800           0
     15643 MEMB     110      DOPC     C36      CTL2    -0.180000       12.0110           0
     15644 MEMB     110      DOPC     H6X      HAL2     0.900000E-01   1.00800           0
     15645 MEMB     110      DOPC     H6Y      HAL2     0.900000E-01   1.00800           0
     15646 MEMB     110      DOPC     C37      CTL2    -0.180000       12.0110           0
     15647 MEMB     110      DOPC     H7X      HAL2     0.900000E-01   1.00800           0
     15648 MEMB     110      DOPC     H7Y      HAL2     0.900000E-01   1.00800           0
     15649 MEMB     110      DOPC     C38      CTL2    -0.180000       12.0110           0
     15650 MEMB     110      DOPC     H8X      HAL2     0.900000E-01   1.00800           0
     15651 MEMB     110      DOPC     H8Y      HAL2     0.900000E-01   1.00800           0
     15652 MEMB     110      DOPC     C39      CEL1    -0.150000       12.0110           0
     15653 MEMB     110      DOPC     H9X      HEL1     0.150000       1.00800           0
     15654 MEMB     110      DOPC     C310     CEL1    -0.150000       12.0110           0
     15655 MEMB     110      DOPC     H10X     HEL1     0.150000       1.00800           0
     15656 MEMB     110      DOPC     C311     CTL2    -0.180000       12.0110           0
     15657 MEMB     110      DOPC     H11X     HAL2     0.900000E-01   1.00800           0
     15658 MEMB     110      DOPC     H11Y     HAL2     0.900000E-01   1.00800           0
     15659 MEMB     110      DOPC     C312     CTL2    -0.180000       12.0110           0
     15660 MEMB     110      DOPC     H12X     HAL2     0.900000E-01   1.00800           0
     15661 MEMB     110      DOPC     H12Y     HAL2     0.900000E-01   1.00800           0
     15662 MEMB     110      DOPC     C313     CTL2    -0.180000       12.0110           0
     15663 MEMB     110      DOPC     H13X     HAL2     0.900000E-01   1.00800           0
     15664 MEMB     110      DOPC     H13Y     HAL2     0.900000E-01   1.00800           0
     15665 MEMB     110      DOPC     C314     CTL2    -0.180000       12.0110           0
     15666 MEMB     110      DOPC     H14X     HAL2     0.900000E-01   1.00800           0
     15667 MEMB     110      DOPC     H14Y     HAL2     0.900000E-01   1.00800           0
     15668 MEMB     110      DOPC     C315     CTL2    -0.180000       12.0110           0
     15669 MEMB     110      DOPC     H15X     HAL2     0.900000E-01   1.00800           0
     15670 MEMB     110      DOPC     H15Y     HAL2     0.900000E-01   1.00800           0
     15671 MEMB     110      DOPC     C316     CTL2    -0.180000       12.0110           0
     15672 MEMB     110      DOPC     H16X     HAL2     0.900000E-01   1.00800           0
     15673 MEMB     110      DOPC     H16Y     HAL2     0.900000E-01   1.00800           0
     15674 MEMB     110      DOPC     C317     CTL2    -0.180000       12.0110           0
     15675 MEMB     110      DOPC     H17X     HAL2     0.900000E-01   1.00800           0
     15676 MEMB     110      DOPC     H17Y     HAL2     0.900000E-01   1.00800           0
     15677 MEMB     110      DOPC     C318     CTL3    -0.270000       12.0110           0
     15678 MEMB     110      DOPC     H18X     HAL3     0.900000E-01   1.00800           0
     15679 MEMB     110      DOPC     H18Y     HAL3     0.900000E-01   1.00800           0
     15680 MEMB     110      DOPC     H18Z     HAL3     0.900000E-01   1.00800           0
     15681 MEMB     111      DOPC     N        NTL     -0.600000       14.0070           0
     15682 MEMB     111      DOPC     C12      CTL2    -0.100000       12.0110           0
     15683 MEMB     111      DOPC     H12A     HL       0.250000       1.00800           0
     15684 MEMB     111      DOPC     H12B     HL       0.250000       1.00800           0
     15685 MEMB     111      DOPC     C13      CTL5    -0.350000       12.0110           0
     15686 MEMB     111      DOPC     H13A     HL       0.250000       1.00800           0
     15687 MEMB     111      DOPC     H13B     HL       0.250000       1.00800           0
     15688 MEMB     111      DOPC     H13C     HL       0.250000       1.00800           0
     15689 MEMB     111      DOPC     C14      CTL5    -0.350000       12.0110           0
     15690 MEMB     111      DOPC     H14A     HL       0.250000       1.00800           0
     15691 MEMB     111      DOPC     H14B     HL       0.250000       1.00800           0
     15692 MEMB     111      DOPC     H14C     HL       0.250000       1.00800           0
     15693 MEMB     111      DOPC     C15      CTL5    -0.350000       12.0110           0
     15694 MEMB     111      DOPC     H15A     HL       0.250000       1.00800           0
     15695 MEMB     111      DOPC     H15B     HL       0.250000       1.00800           0
     15696 MEMB     111      DOPC     H15C     HL       0.250000       1.00800           0
     15697 MEMB     111      DOPC     C11      CTL2    -0.800000E-01   12.0110           0
     15698 MEMB     111      DOPC     H11A     HAL2     0.900000E-01   1.00800           0
     15699 MEMB     111      DOPC     H11B     HAL2     0.900000E-01   1.00800           0
     15700 MEMB     111      DOPC     P        PL        1.50000       30.9740           0
     15701 MEMB     111      DOPC     O13      O2L     -0.780000       15.9994           0
     15702 MEMB     111      DOPC     O14      O2L     -0.780000       15.9994           0
     15703 MEMB     111      DOPC     O12      OSLP    -0.570000       15.9994           0
     15704 MEMB     111      DOPC     O11      OSLP    -0.570000       15.9994           0
     15705 MEMB     111      DOPC     C1       CTL2    -0.800000E-01   12.0110           0
     15706 MEMB     111      DOPC     HA       HAL2     0.900000E-01   1.00800           0
     15707 MEMB     111      DOPC     HB       HAL2     0.900000E-01   1.00800           0
     15708 MEMB     111      DOPC     C2       CTL1     0.170000       12.0110           0
     15709 MEMB     111      DOPC     HS       HAL1     0.900000E-01   1.00800           0
     15710 MEMB     111      DOPC     O21      OSL     -0.490000       15.9994           0
     15711 MEMB     111      DOPC     C21      CL       0.900000       12.0110           0
     15712 MEMB     111      DOPC     O22      OBL     -0.630000       15.9994           0
     15713 MEMB     111      DOPC     C22      CTL2    -0.220000       12.0110           0
     15714 MEMB     111      DOPC     H2R      HAL2     0.900000E-01   1.00800           0
     15715 MEMB     111      DOPC     H2S      HAL2     0.900000E-01   1.00800           0
     15716 MEMB     111      DOPC     C3       CTL2     0.800000E-01   12.0110           0
     15717 MEMB     111      DOPC     HX       HAL2     0.900000E-01   1.00800           0
     15718 MEMB     111      DOPC     HY       HAL2     0.900000E-01   1.00800           0
     15719 MEMB     111      DOPC     O31      OSL     -0.490000       15.9994           0
     15720 MEMB     111      DOPC     C31      CL       0.900000       12.0110           0
     15721 MEMB     111      DOPC     O32      OBL     -0.630000       15.9994           0
     15722 MEMB     111      DOPC     C32      CTL2    -0.220000       12.0110           0
     15723 MEMB     111      DOPC     H2X      HAL2     0.900000E-01   1.00800           0
     15724 MEMB     111      DOPC     H2Y      HAL2     0.900000E-01   1.00800           0
     15725 MEMB     111      DOPC     C23      CTL2    -0.180000       12.0110           0
     15726 MEMB     111      DOPC     H3R      HAL2     0.900000E-01   1.00800           0
     15727 MEMB     111      DOPC     H3S      HAL2     0.900000E-01   1.00800           0
     15728 MEMB     111      DOPC     C24      CTL2    -0.180000       12.0110           0
     15729 MEMB     111      DOPC     H4R      HAL2     0.900000E-01   1.00800           0
     15730 MEMB     111      DOPC     H4S      HAL2     0.900000E-01   1.00800           0
     15731 MEMB     111      DOPC     C25      CTL2    -0.180000       12.0110           0
     15732 MEMB     111      DOPC     H5R      HAL2     0.900000E-01   1.00800           0
     15733 MEMB     111      DOPC     H5S      HAL2     0.900000E-01   1.00800           0
     15734 MEMB     111      DOPC     C26      CTL2    -0.180000       12.0110           0
     15735 MEMB     111      DOPC     H6R      HAL2     0.900000E-01   1.00800           0
     15736 MEMB     111      DOPC     H6S      HAL2     0.900000E-01   1.00800           0
     15737 MEMB     111      DOPC     C27      CTL2    -0.180000       12.0110           0
     15738 MEMB     111      DOPC     H7R      HAL2     0.900000E-01   1.00800           0
     15739 MEMB     111      DOPC     H7S      HAL2     0.900000E-01   1.00800           0
     15740 MEMB     111      DOPC     C28      CTL2    -0.180000       12.0110           0
     15741 MEMB     111      DOPC     H8R      HAL2     0.900000E-01   1.00800           0
     15742 MEMB     111      DOPC     H8S      HAL2     0.900000E-01   1.00800           0
     15743 MEMB     111      DOPC     C29      CEL1    -0.150000       12.0110           0
     15744 MEMB     111      DOPC     H9R      HEL1     0.150000       1.00800           0
     15745 MEMB     111      DOPC     C210     CEL1    -0.150000       12.0110           0
     15746 MEMB     111      DOPC     H10R     HEL1     0.150000       1.00800           0
     15747 MEMB     111      DOPC     C211     CTL2    -0.180000       12.0110           0
     15748 MEMB     111      DOPC     H11R     HAL2     0.900000E-01   1.00800           0
     15749 MEMB     111      DOPC     H11S     HAL2     0.900000E-01   1.00800           0
     15750 MEMB     111      DOPC     C212     CTL2    -0.180000       12.0110           0
     15751 MEMB     111      DOPC     H12R     HAL2     0.900000E-01   1.00800           0
     15752 MEMB     111      DOPC     H12S     HAL2     0.900000E-01   1.00800           0
     15753 MEMB     111      DOPC     C213     CTL2    -0.180000       12.0110           0
     15754 MEMB     111      DOPC     H13R     HAL2     0.900000E-01   1.00800           0
     15755 MEMB     111      DOPC     H13S     HAL2     0.900000E-01   1.00800           0
     15756 MEMB     111      DOPC     C214     CTL2    -0.180000       12.0110           0
     15757 MEMB     111      DOPC     H14R     HAL2     0.900000E-01   1.00800           0
     15758 MEMB     111      DOPC     H14S     HAL2     0.900000E-01   1.00800           0
     15759 MEMB     111      DOPC     C215     CTL2    -0.180000       12.0110           0
     15760 MEMB     111      DOPC     H15R     HAL2     0.900000E-01   1.00800           0
     15761 MEMB     111      DOPC     H15S     HAL2     0.900000E-01   1.00800           0
     15762 MEMB     111      DOPC     C216     CTL2    -0.180000       12.0110           0
     15763 MEMB     111      DOPC     H16R     HAL2     0.900000E-01   1.00800           0
     15764 MEMB     111      DOPC     H16S     HAL2     0.900000E-01   1.00800           0
     15765 MEMB     111      DOPC     C217     CTL2    -0.180000       12.0110           0
     15766 MEMB     111      DOPC     H17R     HAL2     0.900000E-01   1.00800           0
     15767 MEMB     111      DOPC     H17S     HAL2     0.900000E-01   1.00800           0
     15768 MEMB     111      DOPC     C218     CTL3    -0.270000       12.0110           0
     15769 MEMB     111      DOPC     H18R     HAL3     0.900000E-01   1.00800           0
     15770 MEMB     111      DOPC     H18S     HAL3     0.900000E-01   1.00800           0
     15771 MEMB     111      DOPC     H18T     HAL3     0.900000E-01   1.00800           0
     15772 MEMB     111      DOPC     C33      CTL2    -0.180000       12.0110           0
     15773 MEMB     111      DOPC     H3X      HAL2     0.900000E-01   1.00800           0
     15774 MEMB     111      DOPC     H3Y      HAL2     0.900000E-01   1.00800           0
     15775 MEMB     111      DOPC     C34      CTL2    -0.180000       12.0110           0
     15776 MEMB     111      DOPC     H4X      HAL2     0.900000E-01   1.00800           0
     15777 MEMB     111      DOPC     H4Y      HAL2     0.900000E-01   1.00800           0
     15778 MEMB     111      DOPC     C35      CTL2    -0.180000       12.0110           0
     15779 MEMB     111      DOPC     H5X      HAL2     0.900000E-01   1.00800           0
     15780 MEMB     111      DOPC     H5Y      HAL2     0.900000E-01   1.00800           0
     15781 MEMB     111      DOPC     C36      CTL2    -0.180000       12.0110           0
     15782 MEMB     111      DOPC     H6X      HAL2     0.900000E-01   1.00800           0
     15783 MEMB     111      DOPC     H6Y      HAL2     0.900000E-01   1.00800           0
     15784 MEMB     111      DOPC     C37      CTL2    -0.180000       12.0110           0
     15785 MEMB     111      DOPC     H7X      HAL2     0.900000E-01   1.00800           0
     15786 MEMB     111      DOPC     H7Y      HAL2     0.900000E-01   1.00800           0
     15787 MEMB     111      DOPC     C38      CTL2    -0.180000       12.0110           0
     15788 MEMB     111      DOPC     H8X      HAL2     0.900000E-01   1.00800           0
     15789 MEMB     111      DOPC     H8Y      HAL2     0.900000E-01   1.00800           0
     15790 MEMB     111      DOPC     C39      CEL1    -0.150000       12.0110           0
     15791 MEMB     111      DOPC     H9X      HEL1     0.150000       1.00800           0
     15792 MEMB     111      DOPC     C310     CEL1    -0.150000       12.0110           0
     15793 MEMB     111      DOPC     H10X     HEL1     0.150000       1.00800           0
     15794 MEMB     111      DOPC     C311     CTL2    -0.180000       12.0110           0
     15795 MEMB     111      DOPC     H11X     HAL2     0.900000E-01   1.00800           0
     15796 MEMB     111      DOPC     H11Y     HAL2     0.900000E-01   1.00800           0
     15797 MEMB     111      DOPC     C312     CTL2    -0.180000       12.0110           0
     15798 MEMB     111      DOPC     H12X     HAL2     0.900000E-01   1.00800           0
     15799 MEMB     111      DOPC     H12Y     HAL2     0.900000E-01   1.00800           0
     15800 MEMB     111      DOPC     C313     CTL2    -0.180000       12.0110           0
     15801 MEMB     111      DOPC     H13X     HAL2     0.900000E-01   1.00800           0
     15802 MEMB     111      DOPC     H13Y     HAL2     0.900000E-01   1.00800           0
     15803 MEMB     111      DOPC     C314     CTL2    -0.180000       12.0110           0
     15804 MEMB     111      DOPC     H14X     HAL2     0.900000E-01   1.00800           0
     15805 MEMB     111      DOPC     H14Y     HAL2     0.900000E-01   1.00800           0
     15806 MEMB     111      DOPC     C315     CTL2    -0.180000       12.0110           0
     15807 MEMB     111      DOPC     H15X     HAL2     0.900000E-01   1.00800           0
     15808 MEMB     111      DOPC     H15Y     HAL2     0.900000E-01   1.00800           0
     15809 MEMB     111      DOPC     C316     CTL2    -0.180000       12.0110           0
     15810 MEMB     111      DOPC     H16X     HAL2     0.900000E-01   1.00800           0
     15811 MEMB     111      DOPC     H16Y     HAL2     0.900000E-01   1.00800           0
     15812 MEMB     111      DOPC     C317     CTL2    -0.180000       12.0110           0
     15813 MEMB     111      DOPC     H17X     HAL2     0.900000E-01   1.00800           0
     15814 MEMB     111      DOPC     H17Y     HAL2     0.900000E-01   1.00800           0
     15815 MEMB     111      DOPC     C318     CTL3    -0.270000       12.0110           0
     15816 MEMB     111      DOPC     H18X     HAL3     0.900000E-01   1.00800           0
     15817 MEMB     111      DOPC     H18Y     HAL3     0.900000E-01   1.00800           0
     15818 MEMB     111      DOPC     H18Z     HAL3     0.900000E-01   1.00800           0
     15819 MEMB     112      DOPC     N        NTL     -0.600000       14.0070           0
     15820 MEMB     112      DOPC     C12      CTL2    -0.100000       12.0110           0
     15821 MEMB     112      DOPC     H12A     HL       0.250000       1.00800           0
     15822 MEMB     112      DOPC     H12B     HL       0.250000       1.00800           0
     15823 MEMB     112      DOPC     C13      CTL5    -0.350000       12.0110           0
     15824 MEMB     112      DOPC     H13A     HL       0.250000       1.00800           0
     15825 MEMB     112      DOPC     H13B     HL       0.250000       1.00800           0
     15826 MEMB     112      DOPC     H13C     HL       0.250000       1.00800           0
     15827 MEMB     112      DOPC     C14      CTL5    -0.350000       12.0110           0
     15828 MEMB     112      DOPC     H14A     HL       0.250000       1.00800           0
     15829 MEMB     112      DOPC     H14B     HL       0.250000       1.00800           0
     15830 MEMB     112      DOPC     H14C     HL       0.250000       1.00800           0
     15831 MEMB     112      DOPC     C15      CTL5    -0.350000       12.0110           0
     15832 MEMB     112      DOPC     H15A     HL       0.250000       1.00800           0
     15833 MEMB     112      DOPC     H15B     HL       0.250000       1.00800           0
     15834 MEMB     112      DOPC     H15C     HL       0.250000       1.00800           0
     15835 MEMB     112      DOPC     C11      CTL2    -0.800000E-01   12.0110           0
     15836 MEMB     112      DOPC     H11A     HAL2     0.900000E-01   1.00800           0
     15837 MEMB     112      DOPC     H11B     HAL2     0.900000E-01   1.00800           0
     15838 MEMB     112      DOPC     P        PL        1.50000       30.9740           0
     15839 MEMB     112      DOPC     O13      O2L     -0.780000       15.9994           0
     15840 MEMB     112      DOPC     O14      O2L     -0.780000       15.9994           0
     15841 MEMB     112      DOPC     O12      OSLP    -0.570000       15.9994           0
     15842 MEMB     112      DOPC     O11      OSLP    -0.570000       15.9994           0
     15843 MEMB     112      DOPC     C1       CTL2    -0.800000E-01   12.0110           0
     15844 MEMB     112      DOPC     HA       HAL2     0.900000E-01   1.00800           0
     15845 MEMB     112      DOPC     HB       HAL2     0.900000E-01   1.00800           0
     15846 MEMB     112      DOPC     C2       CTL1     0.170000       12.0110           0
     15847 MEMB     112      DOPC     HS       HAL1     0.900000E-01   1.00800           0
     15848 MEMB     112      DOPC     O21      OSL     -0.490000       15.9994           0
     15849 MEMB     112      DOPC     C21      CL       0.900000       12.0110           0
     15850 MEMB     112      DOPC     O22      OBL     -0.630000       15.9994           0
     15851 MEMB     112      DOPC     C22      CTL2    -0.220000       12.0110           0
     15852 MEMB     112      DOPC     H2R      HAL2     0.900000E-01   1.00800           0
     15853 MEMB     112      DOPC     H2S      HAL2     0.900000E-01   1.00800           0
     15854 MEMB     112      DOPC     C3       CTL2     0.800000E-01   12.0110           0
     15855 MEMB     112      DOPC     HX       HAL2     0.900000E-01   1.00800           0
     15856 MEMB     112      DOPC     HY       HAL2     0.900000E-01   1.00800           0
     15857 MEMB     112      DOPC     O31      OSL     -0.490000       15.9994           0
     15858 MEMB     112      DOPC     C31      CL       0.900000       12.0110           0
     15859 MEMB     112      DOPC     O32      OBL     -0.630000       15.9994           0
     15860 MEMB     112      DOPC     C32      CTL2    -0.220000       12.0110           0
     15861 MEMB     112      DOPC     H2X      HAL2     0.900000E-01   1.00800           0
     15862 MEMB     112      DOPC     H2Y      HAL2     0.900000E-01   1.00800           0
     15863 MEMB     112      DOPC     C23      CTL2    -0.180000       12.0110           0
     15864 MEMB     112      DOPC     H3R      HAL2     0.900000E-01   1.00800           0
     15865 MEMB     112      DOPC     H3S      HAL2     0.900000E-01   1.00800           0
     15866 MEMB     112      DOPC     C24      CTL2    -0.180000       12.0110           0
     15867 MEMB     112      DOPC     H4R      HAL2     0.900000E-01   1.00800           0
     15868 MEMB     112      DOPC     H4S      HAL2     0.900000E-01   1.00800           0
     15869 MEMB     112      DOPC     C25      CTL2    -0.180000       12.0110           0
     15870 MEMB     112      DOPC     H5R      HAL2     0.900000E-01   1.00800           0
     15871 MEMB     112      DOPC     H5S      HAL2     0.900000E-01   1.00800           0
     15872 MEMB     112      DOPC     C26      CTL2    -0.180000       12.0110           0
     15873 MEMB     112      DOPC     H6R      HAL2     0.900000E-01   1.00800           0
     15874 MEMB     112      DOPC     H6S      HAL2     0.900000E-01   1.00800           0
     15875 MEMB     112      DOPC     C27      CTL2    -0.180000       12.0110           0
     15876 MEMB     112      DOPC     H7R      HAL2     0.900000E-01   1.00800           0
     15877 MEMB     112      DOPC     H7S      HAL2     0.900000E-01   1.00800           0
     15878 MEMB     112      DOPC     C28      CTL2    -0.180000       12.0110           0
     15879 MEMB     112      DOPC     H8R      HAL2     0.900000E-01   1.00800           0
     15880 MEMB     112      DOPC     H8S      HAL2     0.900000E-01   1.00800           0
     15881 MEMB     112      DOPC     C29      CEL1    -0.150000       12.0110           0
     15882 MEMB     112      DOPC     H9R      HEL1     0.150000       1.00800           0
     15883 MEMB     112      DOPC     C210     CEL1    -0.150000       12.0110           0
     15884 MEMB     112      DOPC     H10R     HEL1     0.150000       1.00800           0
     15885 MEMB     112      DOPC     C211     CTL2    -0.180000       12.0110           0
     15886 MEMB     112      DOPC     H11R     HAL2     0.900000E-01   1.00800           0
     15887 MEMB     112      DOPC     H11S     HAL2     0.900000E-01   1.00800           0
     15888 MEMB     112      DOPC     C212     CTL2    -0.180000       12.0110           0
     15889 MEMB     112      DOPC     H12R     HAL2     0.900000E-01   1.00800           0
     15890 MEMB     112      DOPC     H12S     HAL2     0.900000E-01   1.00800           0
     15891 MEMB     112      DOPC     C213     CTL2    -0.180000       12.0110           0
     15892 MEMB     112      DOPC     H13R     HAL2     0.900000E-01   1.00800           0
     15893 MEMB     112      DOPC     H13S     HAL2     0.900000E-01   1.00800           0
     15894 MEMB     112      DOPC     C214     CTL2    -0.180000       12.0110           0
     15895 MEMB     112      DOPC     H14R     HAL2     0.900000E-01   1.00800           0
     15896 MEMB     112      DOPC     H14S     HAL2     0.900000E-01   1.00800           0
     15897 MEMB     112      DOPC     C215     CTL2    -0.180000       12.0110           0
     15898 MEMB     112      DOPC     H15R     HAL2     0.900000E-01   1.00800           0
     15899 MEMB     112      DOPC     H15S     HAL2     0.900000E-01   1.00800           0
     15900 MEMB     112      DOPC     C216     CTL2    -0.180000       12.0110           0
     15901 MEMB     112      DOPC     H16R     HAL2     0.900000E-01   1.00800           0
     15902 MEMB     112      DOPC     H16S     HAL2     0.900000E-01   1.00800           0
     15903 MEMB     112      DOPC     C217     CTL2    -0.180000       12.0110           0
     15904 MEMB     112      DOPC     H17R     HAL2     0.900000E-01   1.00800           0
     15905 MEMB     112      DOPC     H17S     HAL2     0.900000E-01   1.00800           0
     15906 MEMB     112      DOPC     C218     CTL3    -0.270000       12.0110           0
     15907 MEMB     112      DOPC     H18R     HAL3     0.900000E-01   1.00800           0
     15908 MEMB     112      DOPC     H18S     HAL3     0.900000E-01   1.00800           0
     15909 MEMB     112      DOPC     H18T     HAL3     0.900000E-01   1.00800           0
     15910 MEMB     112      DOPC     C33      CTL2    -0.180000       12.0110           0
     15911 MEMB     112      DOPC     H3X      HAL2     0.900000E-01   1.00800           0
     15912 MEMB     112      DOPC     H3Y      HAL2     0.900000E-01   1.00800           0
     15913 MEMB     112      DOPC     C34      CTL2    -0.180000       12.0110           0
     15914 MEMB     112      DOPC     H4X      HAL2     0.900000E-01   1.00800           0
     15915 MEMB     112      DOPC     H4Y      HAL2     0.900000E-01   1.00800           0
     15916 MEMB     112      DOPC     C35      CTL2    -0.180000       12.0110           0
     15917 MEMB     112      DOPC     H5X      HAL2     0.900000E-01   1.00800           0
     15918 MEMB     112      DOPC     H5Y      HAL2     0.900000E-01   1.00800           0
     15919 MEMB     112      DOPC     C36      CTL2    -0.180000       12.0110           0
     15920 MEMB     112      DOPC     H6X      HAL2     0.900000E-01   1.00800           0
     15921 MEMB     112      DOPC     H6Y      HAL2     0.900000E-01   1.00800           0
     15922 MEMB     112      DOPC     C37      CTL2    -0.180000       12.0110           0
     15923 MEMB     112      DOPC     H7X      HAL2     0.900000E-01   1.00800           0
     15924 MEMB     112      DOPC     H7Y      HAL2     0.900000E-01   1.00800           0
     15925 MEMB     112      DOPC     C38      CTL2    -0.180000       12.0110           0
     15926 MEMB     112      DOPC     H8X      HAL2     0.900000E-01   1.00800           0
     15927 MEMB     112      DOPC     H8Y      HAL2     0.900000E-01   1.00800           0
     15928 MEMB     112      DOPC     C39      CEL1    -0.150000       12.0110           0
     15929 MEMB     112      DOPC     H9X      HEL1     0.150000       1.00800           0
     15930 MEMB     112      DOPC     C310     CEL1    -0.150000       12.0110           0
     15931 MEMB     112      DOPC     H10X     HEL1     0.150000       1.00800           0
     15932 MEMB     112      DOPC     C311     CTL2    -0.180000       12.0110           0
     15933 MEMB     112      DOPC     H11X     HAL2     0.900000E-01   1.00800           0
     15934 MEMB     112      DOPC     H11Y     HAL2     0.900000E-01   1.00800           0
     15935 MEMB     112      DOPC     C312     CTL2    -0.180000       12.0110           0
     15936 MEMB     112      DOPC     H12X     HAL2     0.900000E-01   1.00800           0
     15937 MEMB     112      DOPC     H12Y     HAL2     0.900000E-01   1.00800           0
     15938 MEMB     112      DOPC     C313     CTL2    -0.180000       12.0110           0
     15939 MEMB     112      DOPC     H13X     HAL2     0.900000E-01   1.00800           0
     15940 MEMB     112      DOPC     H13Y     HAL2     0.900000E-01   1.00800           0
     15941 MEMB     112      DOPC     C314     CTL2    -0.180000       12.0110           0
     15942 MEMB     112      DOPC     H14X     HAL2     0.900000E-01   1.00800           0
     15943 MEMB     112      DOPC     H14Y     HAL2     0.900000E-01   1.00800           0
     15944 MEMB     112      DOPC     C315     CTL2    -0.180000       12.0110           0
     15945 MEMB     112      DOPC     H15X     HAL2     0.900000E-01   1.00800           0
     15946 MEMB     112      DOPC     H15Y     HAL2     0.900000E-01   1.00800           0
     15947 MEMB     112      DOPC     C316     CTL2    -0.180000       12.0110           0
     15948 MEMB     112      DOPC     H16X     HAL2     0.900000E-01   1.00800           0
     15949 MEMB     112      DOPC     H16Y     HAL2     0.900000E-01   1.00800           0
     15950 MEMB     112      DOPC     C317     CTL2    -0.180000       12.0110           0
     15951 MEMB     112      DOPC     H17X     HAL2     0.900000E-01   1.00800           0
     15952 MEMB     112      DOPC     H17Y     HAL2     0.900000E-01   1.00800           0
     15953 MEMB     112      DOPC     C318     CTL3    -0.270000       12.0110           0
     15954 MEMB     112      DOPC     H18X     HAL3     0.900000E-01   1.00800           0
     15955 MEMB     112      DOPC     H18Y     HAL3     0.900000E-01   1.00800           0
     15956 MEMB     112      DOPC     H18Z     HAL3     0.900000E-01   1.00800           0
     15957 MEMB     113      DOPC     N        NTL     -0.600000       14.0070           0
     15958 MEMB     113      DOPC     C12      CTL2    -0.100000       12.0110           0
     15959 MEMB     113      DOPC     H12A     HL       0.250000       1.00800           0
     15960 MEMB     113      DOPC     H12B     HL       0.250000       1.00800           0
     15961 MEMB     113      DOPC     C13      CTL5    -0.350000       12.0110           0
     15962 MEMB     113      DOPC     H13A     HL       0.250000       1.00800           0
     15963 MEMB     113      DOPC     H13B     HL       0.250000       1.00800           0
     15964 MEMB     113      DOPC     H13C     HL       0.250000       1.00800           0
     15965 MEMB     113      DOPC     C14      CTL5    -0.350000       12.0110           0
     15966 MEMB     113      DOPC     H14A     HL       0.250000       1.00800           0
     15967 MEMB     113      DOPC     H14B     HL       0.250000       1.00800           0
     15968 MEMB     113      DOPC     H14C     HL       0.250000       1.00800           0
     15969 MEMB     113      DOPC     C15      CTL5    -0.350000       12.0110           0
     15970 MEMB     113      DOPC     H15A     HL       0.250000       1.00800           0
     15971 MEMB     113      DOPC     H15B     HL       0.250000       1.00800           0
     15972 MEMB     113      DOPC     H15C     HL       0.250000       1.00800           0
     15973 MEMB     113      DOPC     C11      CTL2    -0.800000E-01   12.0110           0
     15974 MEMB     113      DOPC     H11A     HAL2     0.900000E-01   1.00800           0
     15975 MEMB     113      DOPC     H11B     HAL2     0.900000E-01   1.00800           0
     15976 MEMB     113      DOPC     P        PL        1.50000       30.9740           0
     15977 MEMB     113      DOPC     O13      O2L     -0.780000       15.9994           0
     15978 MEMB     113      DOPC     O14      O2L     -0.780000       15.9994           0
     15979 MEMB     113      DOPC     O12      OSLP    -0.570000       15.9994           0
     15980 MEMB     113      DOPC     O11      OSLP    -0.570000       15.9994           0
     15981 MEMB     113      DOPC     C1       CTL2    -0.800000E-01   12.0110           0
     15982 MEMB     113      DOPC     HA       HAL2     0.900000E-01   1.00800           0
     15983 MEMB     113      DOPC     HB       HAL2     0.900000E-01   1.00800           0
     15984 MEMB     113      DOPC     C2       CTL1     0.170000       12.0110           0
     15985 MEMB     113      DOPC     HS       HAL1     0.900000E-01   1.00800           0
     15986 MEMB     113      DOPC     O21      OSL     -0.490000       15.9994           0
     15987 MEMB     113      DOPC     C21      CL       0.900000       12.0110           0
     15988 MEMB     113      DOPC     O22      OBL     -0.630000       15.9994           0
     15989 MEMB     113      DOPC     C22      CTL2    -0.220000       12.0110           0
     15990 MEMB     113      DOPC     H2R      HAL2     0.900000E-01   1.00800           0
     15991 MEMB     113      DOPC     H2S      HAL2     0.900000E-01   1.00800           0
     15992 MEMB     113      DOPC     C3       CTL2     0.800000E-01   12.0110           0
     15993 MEMB     113      DOPC     HX       HAL2     0.900000E-01   1.00800           0
     15994 MEMB     113      DOPC     HY       HAL2     0.900000E-01   1.00800           0
     15995 MEMB     113      DOPC     O31      OSL     -0.490000       15.9994           0
     15996 MEMB     113      DOPC     C31      CL       0.900000       12.0110           0
     15997 MEMB     113      DOPC     O32      OBL     -0.630000       15.9994           0
     15998 MEMB     113      DOPC     C32      CTL2    -0.220000       12.0110           0
     15999 MEMB     113      DOPC     H2X      HAL2     0.900000E-01   1.00800           0
     16000 MEMB     113      DOPC     H2Y      HAL2     0.900000E-01   1.00800           0
     16001 MEMB     113      DOPC     C23      CTL2    -0.180000       12.0110           0
     16002 MEMB     113      DOPC     H3R      HAL2     0.900000E-01   1.00800           0
     16003 MEMB     113      DOPC     H3S      HAL2     0.900000E-01   1.00800           0
     16004 MEMB     113      DOPC     C24      CTL2    -0.180000       12.0110           0
     16005 MEMB     113      DOPC     H4R      HAL2     0.900000E-01   1.00800           0
     16006 MEMB     113      DOPC     H4S      HAL2     0.900000E-01   1.00800           0
     16007 MEMB     113      DOPC     C25      CTL2    -0.180000       12.0110           0
     16008 MEMB     113      DOPC     H5R      HAL2     0.900000E-01   1.00800           0
     16009 MEMB     113      DOPC     H5S      HAL2     0.900000E-01   1.00800           0
     16010 MEMB     113      DOPC     C26      CTL2    -0.180000       12.0110           0
     16011 MEMB     113      DOPC     H6R      HAL2     0.900000E-01   1.00800           0
     16012 MEMB     113      DOPC     H6S      HAL2     0.900000E-01   1.00800           0
     16013 MEMB     113      DOPC     C27      CTL2    -0.180000       12.0110           0
     16014 MEMB     113      DOPC     H7R      HAL2     0.900000E-01   1.00800           0
     16015 MEMB     113      DOPC     H7S      HAL2     0.900000E-01   1.00800           0
     16016 MEMB     113      DOPC     C28      CTL2    -0.180000       12.0110           0
     16017 MEMB     113      DOPC     H8R      HAL2     0.900000E-01   1.00800           0
     16018 MEMB     113      DOPC     H8S      HAL2     0.900000E-01   1.00800           0
     16019 MEMB     113      DOPC     C29      CEL1    -0.150000       12.0110           0
     16020 MEMB     113      DOPC     H9R      HEL1     0.150000       1.00800           0
     16021 MEMB     113      DOPC     C210     CEL1    -0.150000       12.0110           0
     16022 MEMB     113      DOPC     H10R     HEL1     0.150000       1.00800           0
     16023 MEMB     113      DOPC     C211     CTL2    -0.180000       12.0110           0
     16024 MEMB     113      DOPC     H11R     HAL2     0.900000E-01   1.00800           0
     16025 MEMB     113      DOPC     H11S     HAL2     0.900000E-01   1.00800           0
     16026 MEMB     113      DOPC     C212     CTL2    -0.180000       12.0110           0
     16027 MEMB     113      DOPC     H12R     HAL2     0.900000E-01   1.00800           0
     16028 MEMB     113      DOPC     H12S     HAL2     0.900000E-01   1.00800           0
     16029 MEMB     113      DOPC     C213     CTL2    -0.180000       12.0110           0
     16030 MEMB     113      DOPC     H13R     HAL2     0.900000E-01   1.00800           0
     16031 MEMB     113      DOPC     H13S     HAL2     0.900000E-01   1.00800           0
     16032 MEMB     113      DOPC     C214     CTL2    -0.180000       12.0110           0
     16033 MEMB     113      DOPC     H14R     HAL2     0.900000E-01   1.00800           0
     16034 MEMB     113      DOPC     H14S     HAL2     0.900000E-01   1.00800           0
     16035 MEMB     113      DOPC     C215     CTL2    -0.180000       12.0110           0
     16036 MEMB     113      DOPC     H15R     HAL2     0.900000E-01   1.00800           0
     16037 MEMB     113      DOPC     H15S     HAL2     0.900000E-01   1.00800           0
     16038 MEMB     113      DOPC     C216     CTL2    -0.180000       12.0110           0
     16039 MEMB     113      DOPC     H16R     HAL2     0.900000E-01   1.00800           0
     16040 MEMB     113      DOPC     H16S     HAL2     0.900000E-01   1.00800           0
     16041 MEMB     113      DOPC     C217     CTL2    -0.180000       12.0110           0
     16042 MEMB     113      DOPC     H17R     HAL2     0.900000E-01   1.00800           0
     16043 MEMB     113      DOPC     H17S     HAL2     0.900000E-01   1.00800           0
     16044 MEMB     113      DOPC     C218     CTL3    -0.270000       12.0110           0
     16045 MEMB     113      DOPC     H18R     HAL3     0.900000E-01   1.00800           0
     16046 MEMB     113      DOPC     H18S     HAL3     0.900000E-01   1.00800           0
     16047 MEMB     113      DOPC     H18T     HAL3     0.900000E-01   1.00800           0
     16048 MEMB     113      DOPC     C33      CTL2    -0.180000       12.0110           0
     16049 MEMB     113      DOPC     H3X      HAL2     0.900000E-01   1.00800           0
     16050 MEMB     113      DOPC     H3Y      HAL2     0.900000E-01   1.00800           0
     16051 MEMB     113      DOPC     C34      CTL2    -0.180000       12.0110           0
     16052 MEMB     113      DOPC     H4X      HAL2     0.900000E-01   1.00800           0
     16053 MEMB     113      DOPC     H4Y      HAL2     0.900000E-01   1.00800           0
     16054 MEMB     113      DOPC     C35      CTL2    -0.180000       12.0110           0
     16055 MEMB     113      DOPC     H5X      HAL2     0.900000E-01   1.00800           0
     16056 MEMB     113      DOPC     H5Y      HAL2     0.900000E-01   1.00800           0
     16057 MEMB     113      DOPC     C36      CTL2    -0.180000       12.0110           0
     16058 MEMB     113      DOPC     H6X      HAL2     0.900000E-01   1.00800           0
     16059 MEMB     113      DOPC     H6Y      HAL2     0.900000E-01   1.00800           0
     16060 MEMB     113      DOPC     C37      CTL2    -0.180000       12.0110           0
     16061 MEMB     113      DOPC     H7X      HAL2     0.900000E-01   1.00800           0
     16062 MEMB     113      DOPC     H7Y      HAL2     0.900000E-01   1.00800           0
     16063 MEMB     113      DOPC     C38      CTL2    -0.180000       12.0110           0
     16064 MEMB     113      DOPC     H8X      HAL2     0.900000E-01   1.00800           0
     16065 MEMB     113      DOPC     H8Y      HAL2     0.900000E-01   1.00800           0
     16066 MEMB     113      DOPC     C39      CEL1    -0.150000       12.0110           0
     16067 MEMB     113      DOPC     H9X      HEL1     0.150000       1.00800           0
     16068 MEMB     113      DOPC     C310     CEL1    -0.150000       12.0110           0
     16069 MEMB     113      DOPC     H10X     HEL1     0.150000       1.00800           0
     16070 MEMB     113      DOPC     C311     CTL2    -0.180000       12.0110           0
     16071 MEMB     113      DOPC     H11X     HAL2     0.900000E-01   1.00800           0
     16072 MEMB     113      DOPC     H11Y     HAL2     0.900000E-01   1.00800           0
     16073 MEMB     113      DOPC     C312     CTL2    -0.180000       12.0110           0
     16074 MEMB     113      DOPC     H12X     HAL2     0.900000E-01   1.00800           0
     16075 MEMB     113      DOPC     H12Y     HAL2     0.900000E-01   1.00800           0
     16076 MEMB     113      DOPC     C313     CTL2    -0.180000       12.0110           0
     16077 MEMB     113      DOPC     H13X     HAL2     0.900000E-01   1.00800           0
     16078 MEMB     113      DOPC     H13Y     HAL2     0.900000E-01   1.00800           0
     16079 MEMB     113      DOPC     C314     CTL2    -0.180000       12.0110           0
     16080 MEMB     113      DOPC     H14X     HAL2     0.900000E-01   1.00800           0
     16081 MEMB     113      DOPC     H14Y     HAL2     0.900000E-01   1.00800           0
     16082 MEMB     113      DOPC     C315     CTL2    -0.180000       12.0110           0
     16083 MEMB     113      DOPC     H15X     HAL2     0.900000E-01   1.00800           0
     16084 MEMB     113      DOPC     H15Y     HAL2     0.900000E-01   1.00800           0
     16085 MEMB     113      DOPC     C316     CTL2    -0.180000       12.0110           0
     16086 MEMB     113      DOPC     H16X     HAL2     0.900000E-01   1.00800           0
     16087 MEMB     113      DOPC     H16Y     HAL2     0.900000E-01   1.00800           0
     16088 MEMB     113      DOPC     C317     CTL2    -0.180000       12.0110           0
     16089 MEMB     113      DOPC     H17X     HAL2     0.900000E-01   1.00800           0
     16090 MEMB     113      DOPC     H17Y     HAL2     0.900000E-01   1.00800           0
     16091 MEMB     113      DOPC     C318     CTL3    -0.270000       12.0110           0
     16092 MEMB     113      DOPC     H18X     HAL3     0.900000E-01   1.00800           0
     16093 MEMB     113      DOPC     H18Y     HAL3     0.900000E-01   1.00800           0
     16094 MEMB     113      DOPC     H18Z     HAL3     0.900000E-01   1.00800           0
     16095 MEMB     114      DOPC     N        NTL     -0.600000       14.0070           0
     16096 MEMB     114      DOPC     C12      CTL2    -0.100000       12.0110           0
     16097 MEMB     114      DOPC     H12A     HL       0.250000       1.00800           0
     16098 MEMB     114      DOPC     H12B     HL       0.250000       1.00800           0
     16099 MEMB     114      DOPC     C13      CTL5    -0.350000       12.0110           0
     16100 MEMB     114      DOPC     H13A     HL       0.250000       1.00800           0
     16101 MEMB     114      DOPC     H13B     HL       0.250000       1.00800           0
     16102 MEMB     114      DOPC     H13C     HL       0.250000       1.00800           0
     16103 MEMB     114      DOPC     C14      CTL5    -0.350000       12.0110           0
     16104 MEMB     114      DOPC     H14A     HL       0.250000       1.00800           0
     16105 MEMB     114      DOPC     H14B     HL       0.250000       1.00800           0
     16106 MEMB     114      DOPC     H14C     HL       0.250000       1.00800           0
     16107 MEMB     114      DOPC     C15      CTL5    -0.350000       12.0110           0
     16108 MEMB     114      DOPC     H15A     HL       0.250000       1.00800           0
     16109 MEMB     114      DOPC     H15B     HL       0.250000       1.00800           0
     16110 MEMB     114      DOPC     H15C     HL       0.250000       1.00800           0
     16111 MEMB     114      DOPC     C11      CTL2    -0.800000E-01   12.0110           0
     16112 MEMB     114      DOPC     H11A     HAL2     0.900000E-01   1.00800           0
     16113 MEMB     114      DOPC     H11B     HAL2     0.900000E-01   1.00800           0
     16114 MEMB     114      DOPC     P        PL        1.50000       30.9740           0
     16115 MEMB     114      DOPC     O13      O2L     -0.780000       15.9994           0
     16116 MEMB     114      DOPC     O14      O2L     -0.780000       15.9994           0
     16117 MEMB     114      DOPC     O12      OSLP    -0.570000       15.9994           0
     16118 MEMB     114      DOPC     O11      OSLP    -0.570000       15.9994           0
     16119 MEMB     114      DOPC     C1       CTL2    -0.800000E-01   12.0110           0
     16120 MEMB     114      DOPC     HA       HAL2     0.900000E-01   1.00800           0
     16121 MEMB     114      DOPC     HB       HAL2     0.900000E-01   1.00800           0
     16122 MEMB     114      DOPC     C2       CTL1     0.170000       12.0110           0
     16123 MEMB     114      DOPC     HS       HAL1     0.900000E-01   1.00800           0
     16124 MEMB     114      DOPC     O21      OSL     -0.490000       15.9994           0
     16125 MEMB     114      DOPC     C21      CL       0.900000       12.0110           0
     16126 MEMB     114      DOPC     O22      OBL     -0.630000       15.9994           0
     16127 MEMB     114      DOPC     C22      CTL2    -0.220000       12.0110           0
     16128 MEMB     114      DOPC     H2R      HAL2     0.900000E-01   1.00800           0
     16129 MEMB     114      DOPC     H2S      HAL2     0.900000E-01   1.00800           0
     16130 MEMB     114      DOPC     C3       CTL2     0.800000E-01   12.0110           0
     16131 MEMB     114      DOPC     HX       HAL2     0.900000E-01   1.00800           0
     16132 MEMB     114      DOPC     HY       HAL2     0.900000E-01   1.00800           0
     16133 MEMB     114      DOPC     O31      OSL     -0.490000       15.9994           0
     16134 MEMB     114      DOPC     C31      CL       0.900000       12.0110           0
     16135 MEMB     114      DOPC     O32      OBL     -0.630000       15.9994           0
     16136 MEMB     114      DOPC     C32      CTL2    -0.220000       12.0110           0
     16137 MEMB     114      DOPC     H2X      HAL2     0.900000E-01   1.00800           0
     16138 MEMB     114      DOPC     H2Y      HAL2     0.900000E-01   1.00800           0
     16139 MEMB     114      DOPC     C23      CTL2    -0.180000       12.0110           0
     16140 MEMB     114      DOPC     H3R      HAL2     0.900000E-01   1.00800           0
     16141 MEMB     114      DOPC     H3S      HAL2     0.900000E-01   1.00800           0
     16142 MEMB     114      DOPC     C24      CTL2    -0.180000       12.0110           0
     16143 MEMB     114      DOPC     H4R      HAL2     0.900000E-01   1.00800           0
     16144 MEMB     114      DOPC     H4S      HAL2     0.900000E-01   1.00800           0
     16145 MEMB     114      DOPC     C25      CTL2    -0.180000       12.0110           0
     16146 MEMB     114      DOPC     H5R      HAL2     0.900000E-01   1.00800           0
     16147 MEMB     114      DOPC     H5S      HAL2     0.900000E-01   1.00800           0
     16148 MEMB     114      DOPC     C26      CTL2    -0.180000       12.0110           0
     16149 MEMB     114      DOPC     H6R      HAL2     0.900000E-01   1.00800           0
     16150 MEMB     114      DOPC     H6S      HAL2     0.900000E-01   1.00800           0
     16151 MEMB     114      DOPC     C27      CTL2    -0.180000       12.0110           0
     16152 MEMB     114      DOPC     H7R      HAL2     0.900000E-01   1.00800           0
     16153 MEMB     114      DOPC     H7S      HAL2     0.900000E-01   1.00800           0
     16154 MEMB     114      DOPC     C28      CTL2    -0.180000       12.0110           0
     16155 MEMB     114      DOPC     H8R      HAL2     0.900000E-01   1.00800           0
     16156 MEMB     114      DOPC     H8S      HAL2     0.900000E-01   1.00800           0
     16157 MEMB     114      DOPC     C29      CEL1    -0.150000       12.0110           0
     16158 MEMB     114      DOPC     H9R      HEL1     0.150000       1.00800           0
     16159 MEMB     114      DOPC     C210     CEL1    -0.150000       12.0110           0
     16160 MEMB     114      DOPC     H10R     HEL1     0.150000       1.00800           0
     16161 MEMB     114      DOPC     C211     CTL2    -0.180000       12.0110           0
     16162 MEMB     114      DOPC     H11R     HAL2     0.900000E-01   1.00800           0
     16163 MEMB     114      DOPC     H11S     HAL2     0.900000E-01   1.00800           0
     16164 MEMB     114      DOPC     C212     CTL2    -0.180000       12.0110           0
     16165 MEMB     114      DOPC     H12R     HAL2     0.900000E-01   1.00800           0
     16166 MEMB     114      DOPC     H12S     HAL2     0.900000E-01   1.00800           0
     16167 MEMB     114      DOPC     C213     CTL2    -0.180000       12.0110           0
     16168 MEMB     114      DOPC     H13R     HAL2     0.900000E-01   1.00800           0
     16169 MEMB     114      DOPC     H13S     HAL2     0.900000E-01   1.00800           0
     16170 MEMB     114      DOPC     C214     CTL2    -0.180000       12.0110           0
     16171 MEMB     114      DOPC     H14R     HAL2     0.900000E-01   1.00800           0
     16172 MEMB     114      DOPC     H14S     HAL2     0.900000E-01   1.00800           0
     16173 MEMB     114      DOPC     C215     CTL2    -0.180000       12.0110           0
     16174 MEMB     114      DOPC     H15R     HAL2     0.900000E-01   1.00800           0
     16175 MEMB     114      DOPC     H15S     HAL2     0.900000E-01   1.00800           0
     16176 MEMB     114      DOPC     C216     CTL2    -0.180000       12.0110           0
     16177 MEMB     114      DOPC     H16R     HAL2     0.900000E-01   1.00800           0
     16178 MEMB     114      DOPC     H16S     HAL2     0.900000E-01   1.00800           0
     16179 MEMB     114      DOPC     C217     CTL2    -0.180000       12.0110           0
     16180 MEMB     114      DOPC     H17R     HAL2     0.900000E-01   1.00800           0
     16181 MEMB     114      DOPC     H17S     HAL2     0.900000E-01   1.00800           0
     16182 MEMB     114      DOPC     C218     CTL3    -0.270000       12.0110           0
     16183 MEMB     114      DOPC     H18R     HAL3     0.900000E-01   1.00800           0
     16184 MEMB     114      DOPC     H18S     HAL3     0.900000E-01   1.00800           0
     16185 MEMB     114      DOPC     H18T     HAL3     0.900000E-01   1.00800           0
     16186 MEMB     114      DOPC     C33      CTL2    -0.180000       12.0110           0
     16187 MEMB     114      DOPC     H3X      HAL2     0.900000E-01   1.00800           0
     16188 MEMB     114      DOPC     H3Y      HAL2     0.900000E-01   1.00800           0
     16189 MEMB     114      DOPC     C34      CTL2    -0.180000       12.0110           0
     16190 MEMB     114      DOPC     H4X      HAL2     0.900000E-01   1.00800           0
     16191 MEMB     114      DOPC     H4Y      HAL2     0.900000E-01   1.00800           0
     16192 MEMB     114      DOPC     C35      CTL2    -0.180000       12.0110           0
     16193 MEMB     114      DOPC     H5X      HAL2     0.900000E-01   1.00800           0
     16194 MEMB     114      DOPC     H5Y      HAL2     0.900000E-01   1.00800           0
     16195 MEMB     114      DOPC     C36      CTL2    -0.180000       12.0110           0
     16196 MEMB     114      DOPC     H6X      HAL2     0.900000E-01   1.00800           0
     16197 MEMB     114      DOPC     H6Y      HAL2     0.900000E-01   1.00800           0
     16198 MEMB     114      DOPC     C37      CTL2    -0.180000       12.0110           0
     16199 MEMB     114      DOPC     H7X      HAL2     0.900000E-01   1.00800           0
     16200 MEMB     114      DOPC     H7Y      HAL2     0.900000E-01   1.00800           0
     16201 MEMB     114      DOPC     C38      CTL2    -0.180000       12.0110           0
     16202 MEMB     114      DOPC     H8X      HAL2     0.900000E-01   1.00800           0
     16203 MEMB     114      DOPC     H8Y      HAL2     0.900000E-01   1.00800           0
     16204 MEMB     114      DOPC     C39      CEL1    -0.150000       12.0110           0
     16205 MEMB     114      DOPC     H9X      HEL1     0.150000       1.00800           0
     16206 MEMB     114      DOPC     C310     CEL1    -0.150000       12.0110           0
     16207 MEMB     114      DOPC     H10X     HEL1     0.150000       1.00800           0
     16208 MEMB     114      DOPC     C311     CTL2    -0.180000       12.0110           0
     16209 MEMB     114      DOPC     H11X     HAL2     0.900000E-01   1.00800           0
     16210 MEMB     114      DOPC     H11Y     HAL2     0.900000E-01   1.00800           0
     16211 MEMB     114      DOPC     C312     CTL2    -0.180000       12.0110           0
     16212 MEMB     114      DOPC     H12X     HAL2     0.900000E-01   1.00800           0
     16213 MEMB     114      DOPC     H12Y     HAL2     0.900000E-01   1.00800           0
     16214 MEMB     114      DOPC     C313     CTL2    -0.180000       12.0110           0
     16215 MEMB     114      DOPC     H13X     HAL2     0.900000E-01   1.00800           0
     16216 MEMB     114      DOPC     H13Y     HAL2     0.900000E-01   1.00800           0
     16217 MEMB     114      DOPC     C314     CTL2    -0.180000       12.0110           0
     16218 MEMB     114      DOPC     H14X     HAL2     0.900000E-01   1.00800           0
     16219 MEMB     114      DOPC     H14Y     HAL2     0.900000E-01   1.00800           0
     16220 MEMB     114      DOPC     C315     CTL2    -0.180000       12.0110           0
     16221 MEMB     114      DOPC     H15X     HAL2     0.900000E-01   1.00800           0
     16222 MEMB     114      DOPC     H15Y     HAL2     0.900000E-01   1.00800           0
     16223 MEMB     114      DOPC     C316     CTL2    -0.180000       12.0110           0
     16224 MEMB     114      DOPC     H16X     HAL2     0.900000E-01   1.00800           0
     16225 MEMB     114      DOPC     H16Y     HAL2     0.900000E-01   1.00800           0
     16226 MEMB     114      DOPC     C317     CTL2    -0.180000       12.0110           0
     16227 MEMB     114      DOPC     H17X     HAL2     0.900000E-01   1.00800           0
     16228 MEMB     114      DOPC     H17Y     HAL2     0.900000E-01   1.00800           0
     16229 MEMB     114      DOPC     C318     CTL3    -0.270000       12.0110           0
     16230 MEMB     114      DOPC     H18X     HAL3     0.900000E-01   1.00800           0
     16231 MEMB     114      DOPC     H18Y     HAL3     0.900000E-01   1.00800           0
     16232 MEMB     114      DOPC     H18Z     HAL3     0.900000E-01   1.00800           0
     16233 MEMB     115      DOPC     N        NTL     -0.600000       14.0070           0
     16234 MEMB     115      DOPC     C12      CTL2    -0.100000       12.0110           0
     16235 MEMB     115      DOPC     H12A     HL       0.250000       1.00800           0
     16236 MEMB     115      DOPC     H12B     HL       0.250000       1.00800           0
     16237 MEMB     115      DOPC     C13      CTL5    -0.350000       12.0110           0
     16238 MEMB     115      DOPC     H13A     HL       0.250000       1.00800           0
     16239 MEMB     115      DOPC     H13B     HL       0.250000       1.00800           0
     16240 MEMB     115      DOPC     H13C     HL       0.250000       1.00800           0
     16241 MEMB     115      DOPC     C14      CTL5    -0.350000       12.0110           0
     16242 MEMB     115      DOPC     H14A     HL       0.250000       1.00800           0
     16243 MEMB     115      DOPC     H14B     HL       0.250000       1.00800           0
     16244 MEMB     115      DOPC     H14C     HL       0.250000       1.00800           0
     16245 MEMB     115      DOPC     C15      CTL5    -0.350000       12.0110           0
     16246 MEMB     115      DOPC     H15A     HL       0.250000       1.00800           0
     16247 MEMB     115      DOPC     H15B     HL       0.250000       1.00800           0
     16248 MEMB     115      DOPC     H15C     HL       0.250000       1.00800           0
     16249 MEMB     115      DOPC     C11      CTL2    -0.800000E-01   12.0110           0
     16250 MEMB     115      DOPC     H11A     HAL2     0.900000E-01   1.00800           0
     16251 MEMB     115      DOPC     H11B     HAL2     0.900000E-01   1.00800           0
     16252 MEMB     115      DOPC     P        PL        1.50000       30.9740           0
     16253 MEMB     115      DOPC     O13      O2L     -0.780000       15.9994           0
     16254 MEMB     115      DOPC     O14      O2L     -0.780000       15.9994           0
     16255 MEMB     115      DOPC     O12      OSLP    -0.570000       15.9994           0
     16256 MEMB     115      DOPC     O11      OSLP    -0.570000       15.9994           0
     16257 MEMB     115      DOPC     C1       CTL2    -0.800000E-01   12.0110           0
     16258 MEMB     115      DOPC     HA       HAL2     0.900000E-01   1.00800           0
     16259 MEMB     115      DOPC     HB       HAL2     0.900000E-01   1.00800           0
     16260 MEMB     115      DOPC     C2       CTL1     0.170000       12.0110           0
     16261 MEMB     115      DOPC     HS       HAL1     0.900000E-01   1.00800           0
     16262 MEMB     115      DOPC     O21      OSL     -0.490000       15.9994           0
     16263 MEMB     115      DOPC     C21      CL       0.900000       12.0110           0
     16264 MEMB     115      DOPC     O22      OBL     -0.630000       15.9994           0
     16265 MEMB     115      DOPC     C22      CTL2    -0.220000       12.0110           0
     16266 MEMB     115      DOPC     H2R      HAL2     0.900000E-01   1.00800           0
     16267 MEMB     115      DOPC     H2S      HAL2     0.900000E-01   1.00800           0
     16268 MEMB     115      DOPC     C3       CTL2     0.800000E-01   12.0110           0
     16269 MEMB     115      DOPC     HX       HAL2     0.900000E-01   1.00800           0
     16270 MEMB     115      DOPC     HY       HAL2     0.900000E-01   1.00800           0
     16271 MEMB     115      DOPC     O31      OSL     -0.490000       15.9994           0
     16272 MEMB     115      DOPC     C31      CL       0.900000       12.0110           0
     16273 MEMB     115      DOPC     O32      OBL     -0.630000       15.9994           0
     16274 MEMB     115      DOPC     C32      CTL2    -0.220000       12.0110           0
     16275 MEMB     115      DOPC     H2X      HAL2     0.900000E-01   1.00800           0
     16276 MEMB     115      DOPC     H2Y      HAL2     0.900000E-01   1.00800           0
     16277 MEMB     115      DOPC     C23      CTL2    -0.180000       12.0110           0
     16278 MEMB     115      DOPC     H3R      HAL2     0.900000E-01   1.00800           0
     16279 MEMB     115      DOPC     H3S      HAL2     0.900000E-01   1.00800           0
     16280 MEMB     115      DOPC     C24      CTL2    -0.180000       12.0110           0
     16281 MEMB     115      DOPC     H4R      HAL2     0.900000E-01   1.00800           0
     16282 MEMB     115      DOPC     H4S      HAL2     0.900000E-01   1.00800           0
     16283 MEMB     115      DOPC     C25      CTL2    -0.180000       12.0110           0
     16284 MEMB     115      DOPC     H5R      HAL2     0.900000E-01   1.00800           0
     16285 MEMB     115      DOPC     H5S      HAL2     0.900000E-01   1.00800           0
     16286 MEMB     115      DOPC     C26      CTL2    -0.180000       12.0110           0
     16287 MEMB     115      DOPC     H6R      HAL2     0.900000E-01   1.00800           0
     16288 MEMB     115      DOPC     H6S      HAL2     0.900000E-01   1.00800           0
     16289 MEMB     115      DOPC     C27      CTL2    -0.180000       12.0110           0
     16290 MEMB     115      DOPC     H7R      HAL2     0.900000E-01   1.00800           0
     16291 MEMB     115      DOPC     H7S      HAL2     0.900000E-01   1.00800           0
     16292 MEMB     115      DOPC     C28      CTL2    -0.180000       12.0110           0
     16293 MEMB     115      DOPC     H8R      HAL2     0.900000E-01   1.00800           0
     16294 MEMB     115      DOPC     H8S      HAL2     0.900000E-01   1.00800           0
     16295 MEMB     115      DOPC     C29      CEL1    -0.150000       12.0110           0
     16296 MEMB     115      DOPC     H9R      HEL1     0.150000       1.00800           0
     16297 MEMB     115      DOPC     C210     CEL1    -0.150000       12.0110           0
     16298 MEMB     115      DOPC     H10R     HEL1     0.150000       1.00800           0
     16299 MEMB     115      DOPC     C211     CTL2    -0.180000       12.0110           0
     16300 MEMB     115      DOPC     H11R     HAL2     0.900000E-01   1.00800           0
     16301 MEMB     115      DOPC     H11S     HAL2     0.900000E-01   1.00800           0
     16302 MEMB     115      DOPC     C212     CTL2    -0.180000       12.0110           0
     16303 MEMB     115      DOPC     H12R     HAL2     0.900000E-01   1.00800           0
     16304 MEMB     115      DOPC     H12S     HAL2     0.900000E-01   1.00800           0
     16305 MEMB     115      DOPC     C213     CTL2    -0.180000       12.0110           0
     16306 MEMB     115      DOPC     H13R     HAL2     0.900000E-01   1.00800           0
     16307 MEMB     115      DOPC     H13S     HAL2     0.900000E-01   1.00800           0
     16308 MEMB     115      DOPC     C214     CTL2    -0.180000       12.0110           0
     16309 MEMB     115      DOPC     H14R     HAL2     0.900000E-01   1.00800           0
     16310 MEMB     115      DOPC     H14S     HAL2     0.900000E-01   1.00800           0
     16311 MEMB     115      DOPC     C215     CTL2    -0.180000       12.0110           0
     16312 MEMB     115      DOPC     H15R     HAL2     0.900000E-01   1.00800           0
     16313 MEMB     115      DOPC     H15S     HAL2     0.900000E-01   1.00800           0
     16314 MEMB     115      DOPC     C216     CTL2    -0.180000       12.0110           0
     16315 MEMB     115      DOPC     H16R     HAL2     0.900000E-01   1.00800           0
     16316 MEMB     115      DOPC     H16S     HAL2     0.900000E-01   1.00800           0
     16317 MEMB     115      DOPC     C217     CTL2    -0.180000       12.0110           0
     16318 MEMB     115      DOPC     H17R     HAL2     0.900000E-01   1.00800           0
     16319 MEMB     115      DOPC     H17S     HAL2     0.900000E-01   1.00800           0
     16320 MEMB     115      DOPC     C218     CTL3    -0.270000       12.0110           0
     16321 MEMB     115      DOPC     H18R     HAL3     0.900000E-01   1.00800           0
     16322 MEMB     115      DOPC     H18S     HAL3     0.900000E-01   1.00800           0
     16323 MEMB     115      DOPC     H18T     HAL3     0.900000E-01   1.00800           0
     16324 MEMB     115      DOPC     C33      CTL2    -0.180000       12.0110           0
     16325 MEMB     115      DOPC     H3X      HAL2     0.900000E-01   1.00800           0
     16326 MEMB     115      DOPC     H3Y      HAL2     0.900000E-01   1.00800           0
     16327 MEMB     115      DOPC     C34      CTL2    -0.180000       12.0110           0
     16328 MEMB     115      DOPC     H4X      HAL2     0.900000E-01   1.00800           0
     16329 MEMB     115      DOPC     H4Y      HAL2     0.900000E-01   1.00800           0
     16330 MEMB     115      DOPC     C35      CTL2    -0.180000       12.0110           0
     16331 MEMB     115      DOPC     H5X      HAL2     0.900000E-01   1.00800           0
     16332 MEMB     115      DOPC     H5Y      HAL2     0.900000E-01   1.00800           0
     16333 MEMB     115      DOPC     C36      CTL2    -0.180000       12.0110           0
     16334 MEMB     115      DOPC     H6X      HAL2     0.900000E-01   1.00800           0
     16335 MEMB     115      DOPC     H6Y      HAL2     0.900000E-01   1.00800           0
     16336 MEMB     115      DOPC     C37      CTL2    -0.180000       12.0110           0
     16337 MEMB     115      DOPC     H7X      HAL2     0.900000E-01   1.00800           0
     16338 MEMB     115      DOPC     H7Y      HAL2     0.900000E-01   1.00800           0
     16339 MEMB     115      DOPC     C38      CTL2    -0.180000       12.0110           0
     16340 MEMB     115      DOPC     H8X      HAL2     0.900000E-01   1.00800           0
     16341 MEMB     115      DOPC     H8Y      HAL2     0.900000E-01   1.00800           0
     16342 MEMB     115      DOPC     C39      CEL1    -0.150000       12.0110           0
     16343 MEMB     115      DOPC     H9X      HEL1     0.150000       1.00800           0
     16344 MEMB     115      DOPC     C310     CEL1    -0.150000       12.0110           0
     16345 MEMB     115      DOPC     H10X     HEL1     0.150000       1.00800           0
     16346 MEMB     115      DOPC     C311     CTL2    -0.180000       12.0110           0
     16347 MEMB     115      DOPC     H11X     HAL2     0.900000E-01   1.00800           0
     16348 MEMB     115      DOPC     H11Y     HAL2     0.900000E-01   1.00800           0
     16349 MEMB     115      DOPC     C312     CTL2    -0.180000       12.0110           0
     16350 MEMB     115      DOPC     H12X     HAL2     0.900000E-01   1.00800           0
     16351 MEMB     115      DOPC     H12Y     HAL2     0.900000E-01   1.00800           0
     16352 MEMB     115      DOPC     C313     CTL2    -0.180000       12.0110           0
     16353 MEMB     115      DOPC     H13X     HAL2     0.900000E-01   1.00800           0
     16354 MEMB     115      DOPC     H13Y     HAL2     0.900000E-01   1.00800           0
     16355 MEMB     115      DOPC     C314     CTL2    -0.180000       12.0110           0
     16356 MEMB     115      DOPC     H14X     HAL2     0.900000E-01   1.00800           0
     16357 MEMB     115      DOPC     H14Y     HAL2     0.900000E-01   1.00800           0
     16358 MEMB     115      DOPC     C315     CTL2    -0.180000       12.0110           0
     16359 MEMB     115      DOPC     H15X     HAL2     0.900000E-01   1.00800           0
     16360 MEMB     115      DOPC     H15Y     HAL2     0.900000E-01   1.00800           0
     16361 MEMB     115      DOPC     C316     CTL2    -0.180000       12.0110           0
     16362 MEMB     115      DOPC     H16X     HAL2     0.900000E-01   1.00800           0
     16363 MEMB     115      DOPC     H16Y     HAL2     0.900000E-01   1.00800           0
     16364 MEMB     115      DOPC     C317     CTL2    -0.180000       12.0110           0
     16365 MEMB     115      DOPC     H17X     HAL2     0.900000E-01   1.00800           0
     16366 MEMB     115      DOPC     H17Y     HAL2     0.900000E-01   1.00800           0
     16367 MEMB     115      DOPC     C318     CTL3    -0.270000       12.0110           0
     16368 MEMB     115      DOPC     H18X     HAL3     0.900000E-01   1.00800           0
     16369 MEMB     115      DOPC     H18Y     HAL3     0.900000E-01   1.00800           0
     16370 MEMB     115      DOPC     H18Z     HAL3     0.900000E-01   1.00800           0
     16371 MEMB     116      DOPC     N        NTL     -0.600000       14.0070           0
     16372 MEMB     116      DOPC     C12      CTL2    -0.100000       12.0110           0
     16373 MEMB     116      DOPC     H12A     HL       0.250000       1.00800           0
     16374 MEMB     116      DOPC     H12B     HL       0.250000       1.00800           0
     16375 MEMB     116      DOPC     C13      CTL5    -0.350000       12.0110           0
     16376 MEMB     116      DOPC     H13A     HL       0.250000       1.00800           0
     16377 MEMB     116      DOPC     H13B     HL       0.250000       1.00800           0
     16378 MEMB     116      DOPC     H13C     HL       0.250000       1.00800           0
     16379 MEMB     116      DOPC     C14      CTL5    -0.350000       12.0110           0
     16380 MEMB     116      DOPC     H14A     HL       0.250000       1.00800           0
     16381 MEMB     116      DOPC     H14B     HL       0.250000       1.00800           0
     16382 MEMB     116      DOPC     H14C     HL       0.250000       1.00800           0
     16383 MEMB     116      DOPC     C15      CTL5    -0.350000       12.0110           0
     16384 MEMB     116      DOPC     H15A     HL       0.250000       1.00800           0
     16385 MEMB     116      DOPC     H15B     HL       0.250000       1.00800           0
     16386 MEMB     116      DOPC     H15C     HL       0.250000       1.00800           0
     16387 MEMB     116      DOPC     C11      CTL2    -0.800000E-01   12.0110           0
     16388 MEMB     116      DOPC     H11A     HAL2     0.900000E-01   1.00800           0
     16389 MEMB     116      DOPC     H11B     HAL2     0.900000E-01   1.00800           0
     16390 MEMB     116      DOPC     P        PL        1.50000       30.9740           0
     16391 MEMB     116      DOPC     O13      O2L     -0.780000       15.9994           0
     16392 MEMB     116      DOPC     O14      O2L     -0.780000       15.9994           0
     16393 MEMB     116      DOPC     O12      OSLP    -0.570000       15.9994           0
     16394 MEMB     116      DOPC     O11      OSLP    -0.570000       15.9994           0
     16395 MEMB     116      DOPC     C1       CTL2    -0.800000E-01   12.0110           0
     16396 MEMB     116      DOPC     HA       HAL2     0.900000E-01   1.00800           0
     16397 MEMB     116      DOPC     HB       HAL2     0.900000E-01   1.00800           0
     16398 MEMB     116      DOPC     C2       CTL1     0.170000       12.0110           0
     16399 MEMB     116      DOPC     HS       HAL1     0.900000E-01   1.00800           0
     16400 MEMB     116      DOPC     O21      OSL     -0.490000       15.9994           0
     16401 MEMB     116      DOPC     C21      CL       0.900000       12.0110           0
     16402 MEMB     116      DOPC     O22      OBL     -0.630000       15.9994           0
     16403 MEMB     116      DOPC     C22      CTL2    -0.220000       12.0110           0
     16404 MEMB     116      DOPC     H2R      HAL2     0.900000E-01   1.00800           0
     16405 MEMB     116      DOPC     H2S      HAL2     0.900000E-01   1.00800           0
     16406 MEMB     116      DOPC     C3       CTL2     0.800000E-01   12.0110           0
     16407 MEMB     116      DOPC     HX       HAL2     0.900000E-01   1.00800           0
     16408 MEMB     116      DOPC     HY       HAL2     0.900000E-01   1.00800           0
     16409 MEMB     116      DOPC     O31      OSL     -0.490000       15.9994           0
     16410 MEMB     116      DOPC     C31      CL       0.900000       12.0110           0
     16411 MEMB     116      DOPC     O32      OBL     -0.630000       15.9994           0
     16412 MEMB     116      DOPC     C32      CTL2    -0.220000       12.0110           0
     16413 MEMB     116      DOPC     H2X      HAL2     0.900000E-01   1.00800           0
     16414 MEMB     116      DOPC     H2Y      HAL2     0.900000E-01   1.00800           0
     16415 MEMB     116      DOPC     C23      CTL2    -0.180000       12.0110           0
     16416 MEMB     116      DOPC     H3R      HAL2     0.900000E-01   1.00800           0
     16417 MEMB     116      DOPC     H3S      HAL2     0.900000E-01   1.00800           0
     16418 MEMB     116      DOPC     C24      CTL2    -0.180000       12.0110           0
     16419 MEMB     116      DOPC     H4R      HAL2     0.900000E-01   1.00800           0
     16420 MEMB     116      DOPC     H4S      HAL2     0.900000E-01   1.00800           0
     16421 MEMB     116      DOPC     C25      CTL2    -0.180000       12.0110           0
     16422 MEMB     116      DOPC     H5R      HAL2     0.900000E-01   1.00800           0
     16423 MEMB     116      DOPC     H5S      HAL2     0.900000E-01   1.00800           0
     16424 MEMB     116      DOPC     C26      CTL2    -0.180000       12.0110           0
     16425 MEMB     116      DOPC     H6R      HAL2     0.900000E-01   1.00800           0
     16426 MEMB     116      DOPC     H6S      HAL2     0.900000E-01   1.00800           0
     16427 MEMB     116      DOPC     C27      CTL2    -0.180000       12.0110           0
     16428 MEMB     116      DOPC     H7R      HAL2     0.900000E-01   1.00800           0
     16429 MEMB     116      DOPC     H7S      HAL2     0.900000E-01   1.00800           0
     16430 MEMB     116      DOPC     C28      CTL2    -0.180000       12.0110           0
     16431 MEMB     116      DOPC     H8R      HAL2     0.900000E-01   1.00800           0
     16432 MEMB     116      DOPC     H8S      HAL2     0.900000E-01   1.00800           0
     16433 MEMB     116      DOPC     C29      CEL1    -0.150000       12.0110           0
     16434 MEMB     116      DOPC     H9R      HEL1     0.150000       1.00800           0
     16435 MEMB     116      DOPC     C210     CEL1    -0.150000       12.0110           0
     16436 MEMB     116      DOPC     H10R     HEL1     0.150000       1.00800           0
     16437 MEMB     116      DOPC     C211     CTL2    -0.180000       12.0110           0
     16438 MEMB     116      DOPC     H11R     HAL2     0.900000E-01   1.00800           0
     16439 MEMB     116      DOPC     H11S     HAL2     0.900000E-01   1.00800           0
     16440 MEMB     116      DOPC     C212     CTL2    -0.180000       12.0110           0
     16441 MEMB     116      DOPC     H12R     HAL2     0.900000E-01   1.00800           0
     16442 MEMB     116      DOPC     H12S     HAL2     0.900000E-01   1.00800           0
     16443 MEMB     116      DOPC     C213     CTL2    -0.180000       12.0110           0
     16444 MEMB     116      DOPC     H13R     HAL2     0.900000E-01   1.00800           0
     16445 MEMB     116      DOPC     H13S     HAL2     0.900000E-01   1.00800           0
     16446 MEMB     116      DOPC     C214     CTL2    -0.180000       12.0110           0
     16447 MEMB     116      DOPC     H14R     HAL2     0.900000E-01   1.00800           0
     16448 MEMB     116      DOPC     H14S     HAL2     0.900000E-01   1.00800           0
     16449 MEMB     116      DOPC     C215     CTL2    -0.180000       12.0110           0
     16450 MEMB     116      DOPC     H15R     HAL2     0.900000E-01   1.00800           0
     16451 MEMB     116      DOPC     H15S     HAL2     0.900000E-01   1.00800           0
     16452 MEMB     116      DOPC     C216     CTL2    -0.180000       12.0110           0
     16453 MEMB     116      DOPC     H16R     HAL2     0.900000E-01   1.00800           0
     16454 MEMB     116      DOPC     H16S     HAL2     0.900000E-01   1.00800           0
     16455 MEMB     116      DOPC     C217     CTL2    -0.180000       12.0110           0
     16456 MEMB     116      DOPC     H17R     HAL2     0.900000E-01   1.00800           0
     16457 MEMB     116      DOPC     H17S     HAL2     0.900000E-01   1.00800           0
     16458 MEMB     116      DOPC     C218     CTL3    -0.270000       12.0110           0
     16459 MEMB     116      DOPC     H18R     HAL3     0.900000E-01   1.00800           0
     16460 MEMB     116      DOPC     H18S     HAL3     0.900000E-01   1.00800           0
     16461 MEMB     116      DOPC     H18T     HAL3     0.900000E-01   1.00800           0
     16462 MEMB     116      DOPC     C33      CTL2    -0.180000       12.0110           0
     16463 MEMB     116      DOPC     H3X      HAL2     0.900000E-01   1.00800           0
     16464 MEMB     116      DOPC     H3Y      HAL2     0.900000E-01   1.00800           0
     16465 MEMB     116      DOPC     C34      CTL2    -0.180000       12.0110           0
     16466 MEMB     116      DOPC     H4X      HAL2     0.900000E-01   1.00800           0
     16467 MEMB     116      DOPC     H4Y      HAL2     0.900000E-01   1.00800           0
     16468 MEMB     116      DOPC     C35      CTL2    -0.180000       12.0110           0
     16469 MEMB     116      DOPC     H5X      HAL2     0.900000E-01   1.00800           0
     16470 MEMB     116      DOPC     H5Y      HAL2     0.900000E-01   1.00800           0
     16471 MEMB     116      DOPC     C36      CTL2    -0.180000       12.0110           0
     16472 MEMB     116      DOPC     H6X      HAL2     0.900000E-01   1.00800           0
     16473 MEMB     116      DOPC     H6Y      HAL2     0.900000E-01   1.00800           0
     16474 MEMB     116      DOPC     C37      CTL2    -0.180000       12.0110           0
     16475 MEMB     116      DOPC     H7X      HAL2     0.900000E-01   1.00800           0
     16476 MEMB     116      DOPC     H7Y      HAL2     0.900000E-01   1.00800           0
     16477 MEMB     116      DOPC     C38      CTL2    -0.180000       12.0110           0
     16478 MEMB     116      DOPC     H8X      HAL2     0.900000E-01   1.00800           0
     16479 MEMB     116      DOPC     H8Y      HAL2     0.900000E-01   1.00800           0
     16480 MEMB     116      DOPC     C39      CEL1    -0.150000       12.0110           0
     16481 MEMB     116      DOPC     H9X      HEL1     0.150000       1.00800           0
     16482 MEMB     116      DOPC     C310     CEL1    -0.150000       12.0110           0
     16483 MEMB     116      DOPC     H10X     HEL1     0.150000       1.00800           0
     16484 MEMB     116      DOPC     C311     CTL2    -0.180000       12.0110           0
     16485 MEMB     116      DOPC     H11X     HAL2     0.900000E-01   1.00800           0
     16486 MEMB     116      DOPC     H11Y     HAL2     0.900000E-01   1.00800           0
     16487 MEMB     116      DOPC     C312     CTL2    -0.180000       12.0110           0
     16488 MEMB     116      DOPC     H12X     HAL2     0.900000E-01   1.00800           0
     16489 MEMB     116      DOPC     H12Y     HAL2     0.900000E-01   1.00800           0
     16490 MEMB     116      DOPC     C313     CTL2    -0.180000       12.0110           0
     16491 MEMB     116      DOPC     H13X     HAL2     0.900000E-01   1.00800           0
     16492 MEMB     116      DOPC     H13Y     HAL2     0.900000E-01   1.00800           0
     16493 MEMB     116      DOPC     C314     CTL2    -0.180000       12.0110           0
     16494 MEMB     116      DOPC     H14X     HAL2     0.900000E-01   1.00800           0
     16495 MEMB     116      DOPC     H14Y     HAL2     0.900000E-01   1.00800           0
     16496 MEMB     116      DOPC     C315     CTL2    -0.180000       12.0110           0
     16497 MEMB     116      DOPC     H15X     HAL2     0.900000E-01   1.00800           0
     16498 MEMB     116      DOPC     H15Y     HAL2     0.900000E-01   1.00800           0
     16499 MEMB     116      DOPC     C316     CTL2    -0.180000       12.0110           0
     16500 MEMB     116      DOPC     H16X     HAL2     0.900000E-01   1.00800           0
     16501 MEMB     116      DOPC     H16Y     HAL2     0.900000E-01   1.00800           0
     16502 MEMB     116      DOPC     C317     CTL2    -0.180000       12.0110           0
     16503 MEMB     116      DOPC     H17X     HAL2     0.900000E-01   1.00800           0
     16504 MEMB     116      DOPC     H17Y     HAL2     0.900000E-01   1.00800           0
     16505 MEMB     116      DOPC     C318     CTL3    -0.270000       12.0110           0
     16506 MEMB     116      DOPC     H18X     HAL3     0.900000E-01   1.00800           0
     16507 MEMB     116      DOPC     H18Y     HAL3     0.900000E-01   1.00800           0
     16508 MEMB     116      DOPC     H18Z     HAL3     0.900000E-01   1.00800           0
     16509 MEMB     117      DOPC     N        NTL     -0.600000       14.0070           0
     16510 MEMB     117      DOPC     C12      CTL2    -0.100000       12.0110           0
     16511 MEMB     117      DOPC     H12A     HL       0.250000       1.00800           0
     16512 MEMB     117      DOPC     H12B     HL       0.250000       1.00800           0
     16513 MEMB     117      DOPC     C13      CTL5    -0.350000       12.0110           0
     16514 MEMB     117      DOPC     H13A     HL       0.250000       1.00800           0
     16515 MEMB     117      DOPC     H13B     HL       0.250000       1.00800           0
     16516 MEMB     117      DOPC     H13C     HL       0.250000       1.00800           0
     16517 MEMB     117      DOPC     C14      CTL5    -0.350000       12.0110           0
     16518 MEMB     117      DOPC     H14A     HL       0.250000       1.00800           0
     16519 MEMB     117      DOPC     H14B     HL       0.250000       1.00800           0
     16520 MEMB     117      DOPC     H14C     HL       0.250000       1.00800           0
     16521 MEMB     117      DOPC     C15      CTL5    -0.350000       12.0110           0
     16522 MEMB     117      DOPC     H15A     HL       0.250000       1.00800           0
     16523 MEMB     117      DOPC     H15B     HL       0.250000       1.00800           0
     16524 MEMB     117      DOPC     H15C     HL       0.250000       1.00800           0
     16525 MEMB     117      DOPC     C11      CTL2    -0.800000E-01   12.0110           0
     16526 MEMB     117      DOPC     H11A     HAL2     0.900000E-01   1.00800           0
     16527 MEMB     117      DOPC     H11B     HAL2     0.900000E-01   1.00800           0
     16528 MEMB     117      DOPC     P        PL        1.50000       30.9740           0
     16529 MEMB     117      DOPC     O13      O2L     -0.780000       15.9994           0
     16530 MEMB     117      DOPC     O14      O2L     -0.780000       15.9994           0
     16531 MEMB     117      DOPC     O12      OSLP    -0.570000       15.9994           0
     16532 MEMB     117      DOPC     O11      OSLP    -0.570000       15.9994           0
     16533 MEMB     117      DOPC     C1       CTL2    -0.800000E-01   12.0110           0
     16534 MEMB     117      DOPC     HA       HAL2     0.900000E-01   1.00800           0
     16535 MEMB     117      DOPC     HB       HAL2     0.900000E-01   1.00800           0
     16536 MEMB     117      DOPC     C2       CTL1     0.170000       12.0110           0
     16537 MEMB     117      DOPC     HS       HAL1     0.900000E-01   1.00800           0
     16538 MEMB     117      DOPC     O21      OSL     -0.490000       15.9994           0
     16539 MEMB     117      DOPC     C21      CL       0.900000       12.0110           0
     16540 MEMB     117      DOPC     O22      OBL     -0.630000       15.9994           0
     16541 MEMB     117      DOPC     C22      CTL2    -0.220000       12.0110           0
     16542 MEMB     117      DOPC     H2R      HAL2     0.900000E-01   1.00800           0
     16543 MEMB     117      DOPC     H2S      HAL2     0.900000E-01   1.00800           0
     16544 MEMB     117      DOPC     C3       CTL2     0.800000E-01   12.0110           0
     16545 MEMB     117      DOPC     HX       HAL2     0.900000E-01   1.00800           0
     16546 MEMB     117      DOPC     HY       HAL2     0.900000E-01   1.00800           0
     16547 MEMB     117      DOPC     O31      OSL     -0.490000       15.9994           0
     16548 MEMB     117      DOPC     C31      CL       0.900000       12.0110           0
     16549 MEMB     117      DOPC     O32      OBL     -0.630000       15.9994           0
     16550 MEMB     117      DOPC     C32      CTL2    -0.220000       12.0110           0
     16551 MEMB     117      DOPC     H2X      HAL2     0.900000E-01   1.00800           0
     16552 MEMB     117      DOPC     H2Y      HAL2     0.900000E-01   1.00800           0
     16553 MEMB     117      DOPC     C23      CTL2    -0.180000       12.0110           0
     16554 MEMB     117      DOPC     H3R      HAL2     0.900000E-01   1.00800           0
     16555 MEMB     117      DOPC     H3S      HAL2     0.900000E-01   1.00800           0
     16556 MEMB     117      DOPC     C24      CTL2    -0.180000       12.0110           0
     16557 MEMB     117      DOPC     H4R      HAL2     0.900000E-01   1.00800           0
     16558 MEMB     117      DOPC     H4S      HAL2     0.900000E-01   1.00800           0
     16559 MEMB     117      DOPC     C25      CTL2    -0.180000       12.0110           0
     16560 MEMB     117      DOPC     H5R      HAL2     0.900000E-01   1.00800           0
     16561 MEMB     117      DOPC     H5S      HAL2     0.900000E-01   1.00800           0
     16562 MEMB     117      DOPC     C26      CTL2    -0.180000       12.0110           0
     16563 MEMB     117      DOPC     H6R      HAL2     0.900000E-01   1.00800           0
     16564 MEMB     117      DOPC     H6S      HAL2     0.900000E-01   1.00800           0
     16565 MEMB     117      DOPC     C27      CTL2    -0.180000       12.0110           0
     16566 MEMB     117      DOPC     H7R      HAL2     0.900000E-01   1.00800           0
     16567 MEMB     117      DOPC     H7S      HAL2     0.900000E-01   1.00800           0
     16568 MEMB     117      DOPC     C28      CTL2    -0.180000       12.0110           0
     16569 MEMB     117      DOPC     H8R      HAL2     0.900000E-01   1.00800           0
     16570 MEMB     117      DOPC     H8S      HAL2     0.900000E-01   1.00800           0
     16571 MEMB     117      DOPC     C29      CEL1    -0.150000       12.0110           0
     16572 MEMB     117      DOPC     H9R      HEL1     0.150000       1.00800           0
     16573 MEMB     117      DOPC     C210     CEL1    -0.150000       12.0110           0
     16574 MEMB     117      DOPC     H10R     HEL1     0.150000       1.00800           0
     16575 MEMB     117      DOPC     C211     CTL2    -0.180000       12.0110           0
     16576 MEMB     117      DOPC     H11R     HAL2     0.900000E-01   1.00800           0
     16577 MEMB     117      DOPC     H11S     HAL2     0.900000E-01   1.00800           0
     16578 MEMB     117      DOPC     C212     CTL2    -0.180000       12.0110           0
     16579 MEMB     117      DOPC     H12R     HAL2     0.900000E-01   1.00800           0
     16580 MEMB     117      DOPC     H12S     HAL2     0.900000E-01   1.00800           0
     16581 MEMB     117      DOPC     C213     CTL2    -0.180000       12.0110           0
     16582 MEMB     117      DOPC     H13R     HAL2     0.900000E-01   1.00800           0
     16583 MEMB     117      DOPC     H13S     HAL2     0.900000E-01   1.00800           0
     16584 MEMB     117      DOPC     C214     CTL2    -0.180000       12.0110           0
     16585 MEMB     117      DOPC     H14R     HAL2     0.900000E-01   1.00800           0
     16586 MEMB     117      DOPC     H14S     HAL2     0.900000E-01   1.00800           0
     16587 MEMB     117      DOPC     C215     CTL2    -0.180000       12.0110           0
     16588 MEMB     117      DOPC     H15R     HAL2     0.900000E-01   1.00800           0
     16589 MEMB     117      DOPC     H15S     HAL2     0.900000E-01   1.00800           0
     16590 MEMB     117      DOPC     C216     CTL2    -0.180000       12.0110           0
     16591 MEMB     117      DOPC     H16R     HAL2     0.900000E-01   1.00800           0
     16592 MEMB     117      DOPC     H16S     HAL2     0.900000E-01   1.00800           0
     16593 MEMB     117      DOPC     C217     CTL2    -0.180000       12.0110           0
     16594 MEMB     117      DOPC     H17R     HAL2     0.900000E-01   1.00800           0
     16595 MEMB     117      DOPC     H17S     HAL2     0.900000E-01   1.00800           0
     16596 MEMB     117      DOPC     C218     CTL3    -0.270000       12.0110           0
     16597 MEMB     117      DOPC     H18R     HAL3     0.900000E-01   1.00800           0
     16598 MEMB     117      DOPC     H18S     HAL3     0.900000E-01   1.00800           0
     16599 MEMB     117      DOPC     H18T     HAL3     0.900000E-01   1.00800           0
     16600 MEMB     117      DOPC     C33      CTL2    -0.180000       12.0110           0
     16601 MEMB     117      DOPC     H3X      HAL2     0.900000E-01   1.00800           0
     16602 MEMB     117      DOPC     H3Y      HAL2     0.900000E-01   1.00800           0
     16603 MEMB     117      DOPC     C34      CTL2    -0.180000       12.0110           0
     16604 MEMB     117      DOPC     H4X      HAL2     0.900000E-01   1.00800           0
     16605 MEMB     117      DOPC     H4Y      HAL2     0.900000E-01   1.00800           0
     16606 MEMB     117      DOPC     C35      CTL2    -0.180000       12.0110           0
     16607 MEMB     117      DOPC     H5X      HAL2     0.900000E-01   1.00800           0
     16608 MEMB     117      DOPC     H5Y      HAL2     0.900000E-01   1.00800           0
     16609 MEMB     117      DOPC     C36      CTL2    -0.180000       12.0110           0
     16610 MEMB     117      DOPC     H6X      HAL2     0.900000E-01   1.00800           0
     16611 MEMB     117      DOPC     H6Y      HAL2     0.900000E-01   1.00800           0
     16612 MEMB     117      DOPC     C37      CTL2    -0.180000       12.0110           0
     16613 MEMB     117      DOPC     H7X      HAL2     0.900000E-01   1.00800           0
     16614 MEMB     117      DOPC     H7Y      HAL2     0.900000E-01   1.00800           0
     16615 MEMB     117      DOPC     C38      CTL2    -0.180000       12.0110           0
     16616 MEMB     117      DOPC     H8X      HAL2     0.900000E-01   1.00800           0
     16617 MEMB     117      DOPC     H8Y      HAL2     0.900000E-01   1.00800           0
     16618 MEMB     117      DOPC     C39      CEL1    -0.150000       12.0110           0
     16619 MEMB     117      DOPC     H9X      HEL1     0.150000       1.00800           0
     16620 MEMB     117      DOPC     C310     CEL1    -0.150000       12.0110           0
     16621 MEMB     117      DOPC     H10X     HEL1     0.150000       1.00800           0
     16622 MEMB     117      DOPC     C311     CTL2    -0.180000       12.0110           0
     16623 MEMB     117      DOPC     H11X     HAL2     0.900000E-01   1.00800           0
     16624 MEMB     117      DOPC     H11Y     HAL2     0.900000E-01   1.00800           0
     16625 MEMB     117      DOPC     C312     CTL2    -0.180000       12.0110           0
     16626 MEMB     117      DOPC     H12X     HAL2     0.900000E-01   1.00800           0
     16627 MEMB     117      DOPC     H12Y     HAL2     0.900000E-01   1.00800           0
     16628 MEMB     117      DOPC     C313     CTL2    -0.180000       12.0110           0
     16629 MEMB     117      DOPC     H13X     HAL2     0.900000E-01   1.00800           0
     16630 MEMB     117      DOPC     H13Y     HAL2     0.900000E-01   1.00800           0
     16631 MEMB     117      DOPC     C314     CTL2    -0.180000       12.0110           0
     16632 MEMB     117      DOPC     H14X     HAL2     0.900000E-01   1.00800           0
     16633 MEMB     117      DOPC     H14Y     HAL2     0.900000E-01   1.00800           0
     16634 MEMB     117      DOPC     C315     CTL2    -0.180000       12.0110           0
     16635 MEMB     117      DOPC     H15X     HAL2     0.900000E-01   1.00800           0
     16636 MEMB     117      DOPC     H15Y     HAL2     0.900000E-01   1.00800           0
     16637 MEMB     117      DOPC     C316     CTL2    -0.180000       12.0110           0
     16638 MEMB     117      DOPC     H16X     HAL2     0.900000E-01   1.00800           0
     16639 MEMB     117      DOPC     H16Y     HAL2     0.900000E-01   1.00800           0
     16640 MEMB     117      DOPC     C317     CTL2    -0.180000       12.0110           0
     16641 MEMB     117      DOPC     H17X     HAL2     0.900000E-01   1.00800           0
     16642 MEMB     117      DOPC     H17Y     HAL2     0.900000E-01   1.00800           0
     16643 MEMB     117      DOPC     C318     CTL3    -0.270000       12.0110           0
     16644 MEMB     117      DOPC     H18X     HAL3     0.900000E-01   1.00800           0
     16645 MEMB     117      DOPC     H18Y     HAL3     0.900000E-01   1.00800           0
     16646 MEMB     117      DOPC     H18Z     HAL3     0.900000E-01   1.00800           0
     16647 MEMB     118      DOPC     N        NTL     -0.600000       14.0070           0
     16648 MEMB     118      DOPC     C12      CTL2    -0.100000       12.0110           0
     16649 MEMB     118      DOPC     H12A     HL       0.250000       1.00800           0
     16650 MEMB     118      DOPC     H12B     HL       0.250000       1.00800           0
     16651 MEMB     118      DOPC     C13      CTL5    -0.350000       12.0110           0
     16652 MEMB     118      DOPC     H13A     HL       0.250000       1.00800           0
     16653 MEMB     118      DOPC     H13B     HL       0.250000       1.00800           0
     16654 MEMB     118      DOPC     H13C     HL       0.250000       1.00800           0
     16655 MEMB     118      DOPC     C14      CTL5    -0.350000       12.0110           0
     16656 MEMB     118      DOPC     H14A     HL       0.250000       1.00800           0
     16657 MEMB     118      DOPC     H14B     HL       0.250000       1.00800           0
     16658 MEMB     118      DOPC     H14C     HL       0.250000       1.00800           0
     16659 MEMB     118      DOPC     C15      CTL5    -0.350000       12.0110           0
     16660 MEMB     118      DOPC     H15A     HL       0.250000       1.00800           0
     16661 MEMB     118      DOPC     H15B     HL       0.250000       1.00800           0
     16662 MEMB     118      DOPC     H15C     HL       0.250000       1.00800           0
     16663 MEMB     118      DOPC     C11      CTL2    -0.800000E-01   12.0110           0
     16664 MEMB     118      DOPC     H11A     HAL2     0.900000E-01   1.00800           0
     16665 MEMB     118      DOPC     H11B     HAL2     0.900000E-01   1.00800           0
     16666 MEMB     118      DOPC     P        PL        1.50000       30.9740           0
     16667 MEMB     118      DOPC     O13      O2L     -0.780000       15.9994           0
     16668 MEMB     118      DOPC     O14      O2L     -0.780000       15.9994           0
     16669 MEMB     118      DOPC     O12      OSLP    -0.570000       15.9994           0
     16670 MEMB     118      DOPC     O11      OSLP    -0.570000       15.9994           0
     16671 MEMB     118      DOPC     C1       CTL2    -0.800000E-01   12.0110           0
     16672 MEMB     118      DOPC     HA       HAL2     0.900000E-01   1.00800           0
     16673 MEMB     118      DOPC     HB       HAL2     0.900000E-01   1.00800           0
     16674 MEMB     118      DOPC     C2       CTL1     0.170000       12.0110           0
     16675 MEMB     118      DOPC     HS       HAL1     0.900000E-01   1.00800           0
     16676 MEMB     118      DOPC     O21      OSL     -0.490000       15.9994           0
     16677 MEMB     118      DOPC     C21      CL       0.900000       12.0110           0
     16678 MEMB     118      DOPC     O22      OBL     -0.630000       15.9994           0
     16679 MEMB     118      DOPC     C22      CTL2    -0.220000       12.0110           0
     16680 MEMB     118      DOPC     H2R      HAL2     0.900000E-01   1.00800           0
     16681 MEMB     118      DOPC     H2S      HAL2     0.900000E-01   1.00800           0
     16682 MEMB     118      DOPC     C3       CTL2     0.800000E-01   12.0110           0
     16683 MEMB     118      DOPC     HX       HAL2     0.900000E-01   1.00800           0
     16684 MEMB     118      DOPC     HY       HAL2     0.900000E-01   1.00800           0
     16685 MEMB     118      DOPC     O31      OSL     -0.490000       15.9994           0
     16686 MEMB     118      DOPC     C31      CL       0.900000       12.0110           0
     16687 MEMB     118      DOPC     O32      OBL     -0.630000       15.9994           0
     16688 MEMB     118      DOPC     C32      CTL2    -0.220000       12.0110           0
     16689 MEMB     118      DOPC     H2X      HAL2     0.900000E-01   1.00800           0
     16690 MEMB     118      DOPC     H2Y      HAL2     0.900000E-01   1.00800           0
     16691 MEMB     118      DOPC     C23      CTL2    -0.180000       12.0110           0
     16692 MEMB     118      DOPC     H3R      HAL2     0.900000E-01   1.00800           0
     16693 MEMB     118      DOPC     H3S      HAL2     0.900000E-01   1.00800           0
     16694 MEMB     118      DOPC     C24      CTL2    -0.180000       12.0110           0
     16695 MEMB     118      DOPC     H4R      HAL2     0.900000E-01   1.00800           0
     16696 MEMB     118      DOPC     H4S      HAL2     0.900000E-01   1.00800           0
     16697 MEMB     118      DOPC     C25      CTL2    -0.180000       12.0110           0
     16698 MEMB     118      DOPC     H5R      HAL2     0.900000E-01   1.00800           0
     16699 MEMB     118      DOPC     H5S      HAL2     0.900000E-01   1.00800           0
     16700 MEMB     118      DOPC     C26      CTL2    -0.180000       12.0110           0
     16701 MEMB     118      DOPC     H6R      HAL2     0.900000E-01   1.00800           0
     16702 MEMB     118      DOPC     H6S      HAL2     0.900000E-01   1.00800           0
     16703 MEMB     118      DOPC     C27      CTL2    -0.180000       12.0110           0
     16704 MEMB     118      DOPC     H7R      HAL2     0.900000E-01   1.00800           0
     16705 MEMB     118      DOPC     H7S      HAL2     0.900000E-01   1.00800           0
     16706 MEMB     118      DOPC     C28      CTL2    -0.180000       12.0110           0
     16707 MEMB     118      DOPC     H8R      HAL2     0.900000E-01   1.00800           0
     16708 MEMB     118      DOPC     H8S      HAL2     0.900000E-01   1.00800           0
     16709 MEMB     118      DOPC     C29      CEL1    -0.150000       12.0110           0
     16710 MEMB     118      DOPC     H9R      HEL1     0.150000       1.00800           0
     16711 MEMB     118      DOPC     C210     CEL1    -0.150000       12.0110           0
     16712 MEMB     118      DOPC     H10R     HEL1     0.150000       1.00800           0
     16713 MEMB     118      DOPC     C211     CTL2    -0.180000       12.0110           0
     16714 MEMB     118      DOPC     H11R     HAL2     0.900000E-01   1.00800           0
     16715 MEMB     118      DOPC     H11S     HAL2     0.900000E-01   1.00800           0
     16716 MEMB     118      DOPC     C212     CTL2    -0.180000       12.0110           0
     16717 MEMB     118      DOPC     H12R     HAL2     0.900000E-01   1.00800           0
     16718 MEMB     118      DOPC     H12S     HAL2     0.900000E-01   1.00800           0
     16719 MEMB     118      DOPC     C213     CTL2    -0.180000       12.0110           0
     16720 MEMB     118      DOPC     H13R     HAL2     0.900000E-01   1.00800           0
     16721 MEMB     118      DOPC     H13S     HAL2     0.900000E-01   1.00800           0
     16722 MEMB     118      DOPC     C214     CTL2    -0.180000       12.0110           0
     16723 MEMB     118      DOPC     H14R     HAL2     0.900000E-01   1.00800           0
     16724 MEMB     118      DOPC     H14S     HAL2     0.900000E-01   1.00800           0
     16725 MEMB     118      DOPC     C215     CTL2    -0.180000       12.0110           0
     16726 MEMB     118      DOPC     H15R     HAL2     0.900000E-01   1.00800           0
     16727 MEMB     118      DOPC     H15S     HAL2     0.900000E-01   1.00800           0
     16728 MEMB     118      DOPC     C216     CTL2    -0.180000       12.0110           0
     16729 MEMB     118      DOPC     H16R     HAL2     0.900000E-01   1.00800           0
     16730 MEMB     118      DOPC     H16S     HAL2     0.900000E-01   1.00800           0
     16731 MEMB     118      DOPC     C217     CTL2    -0.180000       12.0110           0
     16732 MEMB     118      DOPC     H17R     HAL2     0.900000E-01   1.00800           0
     16733 MEMB     118      DOPC     H17S     HAL2     0.900000E-01   1.00800           0
     16734 MEMB     118      DOPC     C218     CTL3    -0.270000       12.0110           0
     16735 MEMB     118      DOPC     H18R     HAL3     0.900000E-01   1.00800           0
     16736 MEMB     118      DOPC     H18S     HAL3     0.900000E-01   1.00800           0
     16737 MEMB     118      DOPC     H18T     HAL3     0.900000E-01   1.00800           0
     16738 MEMB     118      DOPC     C33      CTL2    -0.180000       12.0110           0
     16739 MEMB     118      DOPC     H3X      HAL2     0.900000E-01   1.00800           0
     16740 MEMB     118      DOPC     H3Y      HAL2     0.900000E-01   1.00800           0
     16741 MEMB     118      DOPC     C34      CTL2    -0.180000       12.0110           0
     16742 MEMB     118      DOPC     H4X      HAL2     0.900000E-01   1.00800           0
     16743 MEMB     118      DOPC     H4Y      HAL2     0.900000E-01   1.00800           0
     16744 MEMB     118      DOPC     C35      CTL2    -0.180000       12.0110           0
     16745 MEMB     118      DOPC     H5X      HAL2     0.900000E-01   1.00800           0
     16746 MEMB     118      DOPC     H5Y      HAL2     0.900000E-01   1.00800           0
     16747 MEMB     118      DOPC     C36      CTL2    -0.180000       12.0110           0
     16748 MEMB     118      DOPC     H6X      HAL2     0.900000E-01   1.00800           0
     16749 MEMB     118      DOPC     H6Y      HAL2     0.900000E-01   1.00800           0
     16750 MEMB     118      DOPC     C37      CTL2    -0.180000       12.0110           0
     16751 MEMB     118      DOPC     H7X      HAL2     0.900000E-01   1.00800           0
     16752 MEMB     118      DOPC     H7Y      HAL2     0.900000E-01   1.00800           0
     16753 MEMB     118      DOPC     C38      CTL2    -0.180000       12.0110           0
     16754 MEMB     118      DOPC     H8X      HAL2     0.900000E-01   1.00800           0
     16755 MEMB     118      DOPC     H8Y      HAL2     0.900000E-01   1.00800           0
     16756 MEMB     118      DOPC     C39      CEL1    -0.150000       12.0110           0
     16757 MEMB     118      DOPC     H9X      HEL1     0.150000       1.00800           0
     16758 MEMB     118      DOPC     C310     CEL1    -0.150000       12.0110           0
     16759 MEMB     118      DOPC     H10X     HEL1     0.150000       1.00800           0
     16760 MEMB     118      DOPC     C311     CTL2    -0.180000       12.0110           0
     16761 MEMB     118      DOPC     H11X     HAL2     0.900000E-01   1.00800           0
     16762 MEMB     118      DOPC     H11Y     HAL2     0.900000E-01   1.00800           0
     16763 MEMB     118      DOPC     C312     CTL2    -0.180000       12.0110           0
     16764 MEMB     118      DOPC     H12X     HAL2     0.900000E-01   1.00800           0
     16765 MEMB     118      DOPC     H12Y     HAL2     0.900000E-01   1.00800           0
     16766 MEMB     118      DOPC     C313     CTL2    -0.180000       12.0110           0
     16767 MEMB     118      DOPC     H13X     HAL2     0.900000E-01   1.00800           0
     16768 MEMB     118      DOPC     H13Y     HAL2     0.900000E-01   1.00800           0
     16769 MEMB     118      DOPC     C314     CTL2    -0.180000       12.0110           0
     16770 MEMB     118      DOPC     H14X     HAL2     0.900000E-01   1.00800           0
     16771 MEMB     118      DOPC     H14Y     HAL2     0.900000E-01   1.00800           0
     16772 MEMB     118      DOPC     C315     CTL2    -0.180000       12.0110           0
     16773 MEMB     118      DOPC     H15X     HAL2     0.900000E-01   1.00800           0
     16774 MEMB     118      DOPC     H15Y     HAL2     0.900000E-01   1.00800           0
     16775 MEMB     118      DOPC     C316     CTL2    -0.180000       12.0110           0
     16776 MEMB     118      DOPC     H16X     HAL2     0.900000E-01   1.00800           0
     16777 MEMB     118      DOPC     H16Y     HAL2     0.900000E-01   1.00800           0
     16778 MEMB     118      DOPC     C317     CTL2    -0.180000       12.0110           0
     16779 MEMB     118      DOPC     H17X     HAL2     0.900000E-01   1.00800           0
     16780 MEMB     118      DOPC     H17Y     HAL2     0.900000E-01   1.00800           0
     16781 MEMB     118      DOPC     C318     CTL3    -0.270000       12.0110           0
     16782 MEMB     118      DOPC     H18X     HAL3     0.900000E-01   1.00800           0
     16783 MEMB     118      DOPC     H18Y     HAL3     0.900000E-01   1.00800           0
     16784 MEMB     118      DOPC     H18Z     HAL3     0.900000E-01   1.00800           0
     16785 MEMB     119      DOPC     N        NTL     -0.600000       14.0070           0
     16786 MEMB     119      DOPC     C12      CTL2    -0.100000       12.0110           0
     16787 MEMB     119      DOPC     H12A     HL       0.250000       1.00800           0
     16788 MEMB     119      DOPC     H12B     HL       0.250000       1.00800           0
     16789 MEMB     119      DOPC     C13      CTL5    -0.350000       12.0110           0
     16790 MEMB     119      DOPC     H13A     HL       0.250000       1.00800           0
     16791 MEMB     119      DOPC     H13B     HL       0.250000       1.00800           0
     16792 MEMB     119      DOPC     H13C     HL       0.250000       1.00800           0
     16793 MEMB     119      DOPC     C14      CTL5    -0.350000       12.0110           0
     16794 MEMB     119      DOPC     H14A     HL       0.250000       1.00800           0
     16795 MEMB     119      DOPC     H14B     HL       0.250000       1.00800           0
     16796 MEMB     119      DOPC     H14C     HL       0.250000       1.00800           0
     16797 MEMB     119      DOPC     C15      CTL5    -0.350000       12.0110           0
     16798 MEMB     119      DOPC     H15A     HL       0.250000       1.00800           0
     16799 MEMB     119      DOPC     H15B     HL       0.250000       1.00800           0
     16800 MEMB     119      DOPC     H15C     HL       0.250000       1.00800           0
     16801 MEMB     119      DOPC     C11      CTL2    -0.800000E-01   12.0110           0
     16802 MEMB     119      DOPC     H11A     HAL2     0.900000E-01   1.00800           0
     16803 MEMB     119      DOPC     H11B     HAL2     0.900000E-01   1.00800           0
     16804 MEMB     119      DOPC     P        PL        1.50000       30.9740           0
     16805 MEMB     119      DOPC     O13      O2L     -0.780000       15.9994           0
     16806 MEMB     119      DOPC     O14      O2L     -0.780000       15.9994           0
     16807 MEMB     119      DOPC     O12      OSLP    -0.570000       15.9994           0
     16808 MEMB     119      DOPC     O11      OSLP    -0.570000       15.9994           0
     16809 MEMB     119      DOPC     C1       CTL2    -0.800000E-01   12.0110           0
     16810 MEMB     119      DOPC     HA       HAL2     0.900000E-01   1.00800           0
     16811 MEMB     119      DOPC     HB       HAL2     0.900000E-01   1.00800           0
     16812 MEMB     119      DOPC     C2       CTL1     0.170000       12.0110           0
     16813 MEMB     119      DOPC     HS       HAL1     0.900000E-01   1.00800           0
     16814 MEMB     119      DOPC     O21      OSL     -0.490000       15.9994           0
     16815 MEMB     119      DOPC     C21      CL       0.900000       12.0110           0
     16816 MEMB     119      DOPC     O22      OBL     -0.630000       15.9994           0
     16817 MEMB     119      DOPC     C22      CTL2    -0.220000       12.0110           0
     16818 MEMB     119      DOPC     H2R      HAL2     0.900000E-01   1.00800           0
     16819 MEMB     119      DOPC     H2S      HAL2     0.900000E-01   1.00800           0
     16820 MEMB     119      DOPC     C3       CTL2     0.800000E-01   12.0110           0
     16821 MEMB     119      DOPC     HX       HAL2     0.900000E-01   1.00800           0
     16822 MEMB     119      DOPC     HY       HAL2     0.900000E-01   1.00800           0
     16823 MEMB     119      DOPC     O31      OSL     -0.490000       15.9994           0
     16824 MEMB     119      DOPC     C31      CL       0.900000       12.0110           0
     16825 MEMB     119      DOPC     O32      OBL     -0.630000       15.9994           0
     16826 MEMB     119      DOPC     C32      CTL2    -0.220000       12.0110           0
     16827 MEMB     119      DOPC     H2X      HAL2     0.900000E-01   1.00800           0
     16828 MEMB     119      DOPC     H2Y      HAL2     0.900000E-01   1.00800           0
     16829 MEMB     119      DOPC     C23      CTL2    -0.180000       12.0110           0
     16830 MEMB     119      DOPC     H3R      HAL2     0.900000E-01   1.00800           0
     16831 MEMB     119      DOPC     H3S      HAL2     0.900000E-01   1.00800           0
     16832 MEMB     119      DOPC     C24      CTL2    -0.180000       12.0110           0
     16833 MEMB     119      DOPC     H4R      HAL2     0.900000E-01   1.00800           0
     16834 MEMB     119      DOPC     H4S      HAL2     0.900000E-01   1.00800           0
     16835 MEMB     119      DOPC     C25      CTL2    -0.180000       12.0110           0
     16836 MEMB     119      DOPC     H5R      HAL2     0.900000E-01   1.00800           0
     16837 MEMB     119      DOPC     H5S      HAL2     0.900000E-01   1.00800           0
     16838 MEMB     119      DOPC     C26      CTL2    -0.180000       12.0110           0
     16839 MEMB     119      DOPC     H6R      HAL2     0.900000E-01   1.00800           0
     16840 MEMB     119      DOPC     H6S      HAL2     0.900000E-01   1.00800           0
     16841 MEMB     119      DOPC     C27      CTL2    -0.180000       12.0110           0
     16842 MEMB     119      DOPC     H7R      HAL2     0.900000E-01   1.00800           0
     16843 MEMB     119      DOPC     H7S      HAL2     0.900000E-01   1.00800           0
     16844 MEMB     119      DOPC     C28      CTL2    -0.180000       12.0110           0
     16845 MEMB     119      DOPC     H8R      HAL2     0.900000E-01   1.00800           0
     16846 MEMB     119      DOPC     H8S      HAL2     0.900000E-01   1.00800           0
     16847 MEMB     119      DOPC     C29      CEL1    -0.150000       12.0110           0
     16848 MEMB     119      DOPC     H9R      HEL1     0.150000       1.00800           0
     16849 MEMB     119      DOPC     C210     CEL1    -0.150000       12.0110           0
     16850 MEMB     119      DOPC     H10R     HEL1     0.150000       1.00800           0
     16851 MEMB     119      DOPC     C211     CTL2    -0.180000       12.0110           0
     16852 MEMB     119      DOPC     H11R     HAL2     0.900000E-01   1.00800           0
     16853 MEMB     119      DOPC     H11S     HAL2     0.900000E-01   1.00800           0
     16854 MEMB     119      DOPC     C212     CTL2    -0.180000       12.0110           0
     16855 MEMB     119      DOPC     H12R     HAL2     0.900000E-01   1.00800           0
     16856 MEMB     119      DOPC     H12S     HAL2     0.900000E-01   1.00800           0
     16857 MEMB     119      DOPC     C213     CTL2    -0.180000       12.0110           0
     16858 MEMB     119      DOPC     H13R     HAL2     0.900000E-01   1.00800           0
     16859 MEMB     119      DOPC     H13S     HAL2     0.900000E-01   1.00800           0
     16860 MEMB     119      DOPC     C214     CTL2    -0.180000       12.0110           0
     16861 MEMB     119      DOPC     H14R     HAL2     0.900000E-01   1.00800           0
     16862 MEMB     119      DOPC     H14S     HAL2     0.900000E-01   1.00800           0
     16863 MEMB     119      DOPC     C215     CTL2    -0.180000       12.0110           0
     16864 MEMB     119      DOPC     H15R     HAL2     0.900000E-01   1.00800           0
     16865 MEMB     119      DOPC     H15S     HAL2     0.900000E-01   1.00800           0
     16866 MEMB     119      DOPC     C216     CTL2    -0.180000       12.0110           0
     16867 MEMB     119      DOPC     H16R     HAL2     0.900000E-01   1.00800           0
     16868 MEMB     119      DOPC     H16S     HAL2     0.900000E-01   1.00800           0
     16869 MEMB     119      DOPC     C217     CTL2    -0.180000       12.0110           0
     16870 MEMB     119      DOPC     H17R     HAL2     0.900000E-01   1.00800           0
     16871 MEMB     119      DOPC     H17S     HAL2     0.900000E-01   1.00800           0
     16872 MEMB     119      DOPC     C218     CTL3    -0.270000       12.0110           0
     16873 MEMB     119      DOPC     H18R     HAL3     0.900000E-01   1.00800           0
     16874 MEMB     119      DOPC     H18S     HAL3     0.900000E-01   1.00800           0
     16875 MEMB     119      DOPC     H18T     HAL3     0.900000E-01   1.00800           0
     16876 MEMB     119      DOPC     C33      CTL2    -0.180000       12.0110           0
     16877 MEMB     119      DOPC     H3X      HAL2     0.900000E-01   1.00800           0
     16878 MEMB     119      DOPC     H3Y      HAL2     0.900000E-01   1.00800           0
     16879 MEMB     119      DOPC     C34      CTL2    -0.180000       12.0110           0
     16880 MEMB     119      DOPC     H4X      HAL2     0.900000E-01   1.00800           0
     16881 MEMB     119      DOPC     H4Y      HAL2     0.900000E-01   1.00800           0
     16882 MEMB     119      DOPC     C35      CTL2    -0.180000       12.0110           0
     16883 MEMB     119      DOPC     H5X      HAL2     0.900000E-01   1.00800           0
     16884 MEMB     119      DOPC     H5Y      HAL2     0.900000E-01   1.00800           0
     16885 MEMB     119      DOPC     C36      CTL2    -0.180000       12.0110           0
     16886 MEMB     119      DOPC     H6X      HAL2     0.900000E-01   1.00800           0
     16887 MEMB     119      DOPC     H6Y      HAL2     0.900000E-01   1.00800           0
     16888 MEMB     119      DOPC     C37      CTL2    -0.180000       12.0110           0
     16889 MEMB     119      DOPC     H7X      HAL2     0.900000E-01   1.00800           0
     16890 MEMB     119      DOPC     H7Y      HAL2     0.900000E-01   1.00800           0
     16891 MEMB     119      DOPC     C38      CTL2    -0.180000       12.0110           0
     16892 MEMB     119      DOPC     H8X      HAL2     0.900000E-01   1.00800           0
     16893 MEMB     119      DOPC     H8Y      HAL2     0.900000E-01   1.00800           0
     16894 MEMB     119      DOPC     C39      CEL1    -0.150000       12.0110           0
     16895 MEMB     119      DOPC     H9X      HEL1     0.150000       1.00800           0
     16896 MEMB     119      DOPC     C310     CEL1    -0.150000       12.0110           0
     16897 MEMB     119      DOPC     H10X     HEL1     0.150000       1.00800           0
     16898 MEMB     119      DOPC     C311     CTL2    -0.180000       12.0110           0
     16899 MEMB     119      DOPC     H11X     HAL2     0.900000E-01   1.00800           0
     16900 MEMB     119      DOPC     H11Y     HAL2     0.900000E-01   1.00800           0
     16901 MEMB     119      DOPC     C312     CTL2    -0.180000       12.0110           0
     16902 MEMB     119      DOPC     H12X     HAL2     0.900000E-01   1.00800           0
     16903 MEMB     119      DOPC     H12Y     HAL2     0.900000E-01   1.00800           0
     16904 MEMB     119      DOPC     C313     CTL2    -0.180000       12.0110           0
     16905 MEMB     119      DOPC     H13X     HAL2     0.900000E-01   1.00800           0
     16906 MEMB     119      DOPC     H13Y     HAL2     0.900000E-01   1.00800           0
     16907 MEMB     119      DOPC     C314     CTL2    -0.180000       12.0110           0
     16908 MEMB     119      DOPC     H14X     HAL2     0.900000E-01   1.00800           0
     16909 MEMB     119      DOPC     H14Y     HAL2     0.900000E-01   1.00800           0
     16910 MEMB     119      DOPC     C315     CTL2    -0.180000       12.0110           0
     16911 MEMB     119      DOPC     H15X     HAL2     0.900000E-01   1.00800           0
     16912 MEMB     119      DOPC     H15Y     HAL2     0.900000E-01   1.00800           0
     16913 MEMB     119      DOPC     C316     CTL2    -0.180000       12.0110           0
     16914 MEMB     119      DOPC     H16X     HAL2     0.900000E-01   1.00800           0
     16915 MEMB     119      DOPC     H16Y     HAL2     0.900000E-01   1.00800           0
     16916 MEMB     119      DOPC     C317     CTL2    -0.180000       12.0110           0
     16917 MEMB     119      DOPC     H17X     HAL2     0.900000E-01   1.00800           0
     16918 MEMB     119      DOPC     H17Y     HAL2     0.900000E-01   1.00800           0
     16919 MEMB     119      DOPC     C318     CTL3    -0.270000       12.0110           0
     16920 MEMB     119      DOPC     H18X     HAL3     0.900000E-01   1.00800           0
     16921 MEMB     119      DOPC     H18Y     HAL3     0.900000E-01   1.00800           0
     16922 MEMB     119      DOPC     H18Z     HAL3     0.900000E-01   1.00800           0
     16923 MEMB     120      DOPC     N        NTL     -0.600000       14.0070           0
     16924 MEMB     120      DOPC     C12      CTL2    -0.100000       12.0110           0
     16925 MEMB     120      DOPC     H12A     HL       0.250000       1.00800           0
     16926 MEMB     120      DOPC     H12B     HL       0.250000       1.00800           0
     16927 MEMB     120      DOPC     C13      CTL5    -0.350000       12.0110           0
     16928 MEMB     120      DOPC     H13A     HL       0.250000       1.00800           0
     16929 MEMB     120      DOPC     H13B     HL       0.250000       1.00800           0
     16930 MEMB     120      DOPC     H13C     HL       0.250000       1.00800           0
     16931 MEMB     120      DOPC     C14      CTL5    -0.350000       12.0110           0
     16932 MEMB     120      DOPC     H14A     HL       0.250000       1.00800           0
     16933 MEMB     120      DOPC     H14B     HL       0.250000       1.00800           0
     16934 MEMB     120      DOPC     H14C     HL       0.250000       1.00800           0
     16935 MEMB     120      DOPC     C15      CTL5    -0.350000       12.0110           0
     16936 MEMB     120      DOPC     H15A     HL       0.250000       1.00800           0
     16937 MEMB     120      DOPC     H15B     HL       0.250000       1.00800           0
     16938 MEMB     120      DOPC     H15C     HL       0.250000       1.00800           0
     16939 MEMB     120      DOPC     C11      CTL2    -0.800000E-01   12.0110           0
     16940 MEMB     120      DOPC     H11A     HAL2     0.900000E-01   1.00800           0
     16941 MEMB     120      DOPC     H11B     HAL2     0.900000E-01   1.00800           0
     16942 MEMB     120      DOPC     P        PL        1.50000       30.9740           0
     16943 MEMB     120      DOPC     O13      O2L     -0.780000       15.9994           0
     16944 MEMB     120      DOPC     O14      O2L     -0.780000       15.9994           0
     16945 MEMB     120      DOPC     O12      OSLP    -0.570000       15.9994           0
     16946 MEMB     120      DOPC     O11      OSLP    -0.570000       15.9994           0
     16947 MEMB     120      DOPC     C1       CTL2    -0.800000E-01   12.0110           0
     16948 MEMB     120      DOPC     HA       HAL2     0.900000E-01   1.00800           0
     16949 MEMB     120      DOPC     HB       HAL2     0.900000E-01   1.00800           0
     16950 MEMB     120      DOPC     C2       CTL1     0.170000       12.0110           0
     16951 MEMB     120      DOPC     HS       HAL1     0.900000E-01   1.00800           0
     16952 MEMB     120      DOPC     O21      OSL     -0.490000       15.9994           0
     16953 MEMB     120      DOPC     C21      CL       0.900000       12.0110           0
     16954 MEMB     120      DOPC     O22      OBL     -0.630000       15.9994           0
     16955 MEMB     120      DOPC     C22      CTL2    -0.220000       12.0110           0
     16956 MEMB     120      DOPC     H2R      HAL2     0.900000E-01   1.00800           0
     16957 MEMB     120      DOPC     H2S      HAL2     0.900000E-01   1.00800           0
     16958 MEMB     120      DOPC     C3       CTL2     0.800000E-01   12.0110           0
     16959 MEMB     120      DOPC     HX       HAL2     0.900000E-01   1.00800           0
     16960 MEMB     120      DOPC     HY       HAL2     0.900000E-01   1.00800           0
     16961 MEMB     120      DOPC     O31      OSL     -0.490000       15.9994           0
     16962 MEMB     120      DOPC     C31      CL       0.900000       12.0110           0
     16963 MEMB     120      DOPC     O32      OBL     -0.630000       15.9994           0
     16964 MEMB     120      DOPC     C32      CTL2    -0.220000       12.0110           0
     16965 MEMB     120      DOPC     H2X      HAL2     0.900000E-01   1.00800           0
     16966 MEMB     120      DOPC     H2Y      HAL2     0.900000E-01   1.00800           0
     16967 MEMB     120      DOPC     C23      CTL2    -0.180000       12.0110           0
     16968 MEMB     120      DOPC     H3R      HAL2     0.900000E-01   1.00800           0
     16969 MEMB     120      DOPC     H3S      HAL2     0.900000E-01   1.00800           0
     16970 MEMB     120      DOPC     C24      CTL2    -0.180000       12.0110           0
     16971 MEMB     120      DOPC     H4R      HAL2     0.900000E-01   1.00800           0
     16972 MEMB     120      DOPC     H4S      HAL2     0.900000E-01   1.00800           0
     16973 MEMB     120      DOPC     C25      CTL2    -0.180000       12.0110           0
     16974 MEMB     120      DOPC     H5R      HAL2     0.900000E-01   1.00800           0
     16975 MEMB     120      DOPC     H5S      HAL2     0.900000E-01   1.00800           0
     16976 MEMB     120      DOPC     C26      CTL2    -0.180000       12.0110           0
     16977 MEMB     120      DOPC     H6R      HAL2     0.900000E-01   1.00800           0
     16978 MEMB     120      DOPC     H6S      HAL2     0.900000E-01   1.00800           0
     16979 MEMB     120      DOPC     C27      CTL2    -0.180000       12.0110           0
     16980 MEMB     120      DOPC     H7R      HAL2     0.900000E-01   1.00800           0
     16981 MEMB     120      DOPC     H7S      HAL2     0.900000E-01   1.00800           0
     16982 MEMB     120      DOPC     C28      CTL2    -0.180000       12.0110           0
     16983 MEMB     120      DOPC     H8R      HAL2     0.900000E-01   1.00800           0
     16984 MEMB     120      DOPC     H8S      HAL2     0.900000E-01   1.00800           0
     16985 MEMB     120      DOPC     C29      CEL1    -0.150000       12.0110           0
     16986 MEMB     120      DOPC     H9R      HEL1     0.150000       1.00800           0
     16987 MEMB     120      DOPC     C210     CEL1    -0.150000       12.0110           0
     16988 MEMB     120      DOPC     H10R     HEL1     0.150000       1.00800           0
     16989 MEMB     120      DOPC     C211     CTL2    -0.180000       12.0110           0
     16990 MEMB     120      DOPC     H11R     HAL2     0.900000E-01   1.00800           0
     16991 MEMB     120      DOPC     H11S     HAL2     0.900000E-01   1.00800           0
     16992 MEMB     120      DOPC     C212     CTL2    -0.180000       12.0110           0
     16993 MEMB     120      DOPC     H12R     HAL2     0.900000E-01   1.00800           0
     16994 MEMB     120      DOPC     H12S     HAL2     0.900000E-01   1.00800           0
     16995 MEMB     120      DOPC     C213     CTL2    -0.180000       12.0110           0
     16996 MEMB     120      DOPC     H13R     HAL2     0.900000E-01   1.00800           0
     16997 MEMB     120      DOPC     H13S     HAL2     0.900000E-01   1.00800           0
     16998 MEMB     120      DOPC     C214     CTL2    -0.180000       12.0110           0
     16999 MEMB     120      DOPC     H14R     HAL2     0.900000E-01   1.00800           0
     17000 MEMB     120      DOPC     H14S     HAL2     0.900000E-01   1.00800           0
     17001 MEMB     120      DOPC     C215     CTL2    -0.180000       12.0110           0
     17002 MEMB     120      DOPC     H15R     HAL2     0.900000E-01   1.00800           0
     17003 MEMB     120      DOPC     H15S     HAL2     0.900000E-01   1.00800           0
     17004 MEMB     120      DOPC     C216     CTL2    -0.180000       12.0110           0
     17005 MEMB     120      DOPC     H16R     HAL2     0.900000E-01   1.00800           0
     17006 MEMB     120      DOPC     H16S     HAL2     0.900000E-01   1.00800           0
     17007 MEMB     120      DOPC     C217     CTL2    -0.180000       12.0110           0
     17008 MEMB     120      DOPC     H17R     HAL2     0.900000E-01   1.00800           0
     17009 MEMB     120      DOPC     H17S     HAL2     0.900000E-01   1.00800           0
     17010 MEMB     120      DOPC     C218     CTL3    -0.270000       12.0110           0
     17011 MEMB     120      DOPC     H18R     HAL3     0.900000E-01   1.00800           0
     17012 MEMB     120      DOPC     H18S     HAL3     0.900000E-01   1.00800           0
     17013 MEMB     120      DOPC     H18T     HAL3     0.900000E-01   1.00800           0
     17014 MEMB     120      DOPC     C33      CTL2    -0.180000       12.0110           0
     17015 MEMB     120      DOPC     H3X      HAL2     0.900000E-01   1.00800           0
     17016 MEMB     120      DOPC     H3Y      HAL2     0.900000E-01   1.00800           0
     17017 MEMB     120      DOPC     C34      CTL2    -0.180000       12.0110           0
     17018 MEMB     120      DOPC     H4X      HAL2     0.900000E-01   1.00800           0
     17019 MEMB     120      DOPC     H4Y      HAL2     0.900000E-01   1.00800           0
     17020 MEMB     120      DOPC     C35      CTL2    -0.180000       12.0110           0
     17021 MEMB     120      DOPC     H5X      HAL2     0.900000E-01   1.00800           0
     17022 MEMB     120      DOPC     H5Y      HAL2     0.900000E-01   1.00800           0
     17023 MEMB     120      DOPC     C36      CTL2    -0.180000       12.0110           0
     17024 MEMB     120      DOPC     H6X      HAL2     0.900000E-01   1.00800           0
     17025 MEMB     120      DOPC     H6Y      HAL2     0.900000E-01   1.00800           0
     17026 MEMB     120      DOPC     C37      CTL2    -0.180000       12.0110           0
     17027 MEMB     120      DOPC     H7X      HAL2     0.900000E-01   1.00800           0
     17028 MEMB     120      DOPC     H7Y      HAL2     0.900000E-01   1.00800           0
     17029 MEMB     120      DOPC     C38      CTL2    -0.180000       12.0110           0
     17030 MEMB     120      DOPC     H8X      HAL2     0.900000E-01   1.00800           0
     17031 MEMB     120      DOPC     H8Y      HAL2     0.900000E-01   1.00800           0
     17032 MEMB     120      DOPC     C39      CEL1    -0.150000       12.0110           0
     17033 MEMB     120      DOPC     H9X      HEL1     0.150000       1.00800           0
     17034 MEMB     120      DOPC     C310     CEL1    -0.150000       12.0110           0
     17035 MEMB     120      DOPC     H10X     HEL1     0.150000       1.00800           0
     17036 MEMB     120      DOPC     C311     CTL2    -0.180000       12.0110           0
     17037 MEMB     120      DOPC     H11X     HAL2     0.900000E-01   1.00800           0
     17038 MEMB     120      DOPC     H11Y     HAL2     0.900000E-01   1.00800           0
     17039 MEMB     120      DOPC     C312     CTL2    -0.180000       12.0110           0
     17040 MEMB     120      DOPC     H12X     HAL2     0.900000E-01   1.00800           0
     17041 MEMB     120      DOPC     H12Y     HAL2     0.900000E-01   1.00800           0
     17042 MEMB     120      DOPC     C313     CTL2    -0.180000       12.0110           0
     17043 MEMB     120      DOPC     H13X     HAL2     0.900000E-01   1.00800           0
     17044 MEMB     120      DOPC     H13Y     HAL2     0.900000E-01   1.00800           0
     17045 MEMB     120      DOPC     C314     CTL2    -0.180000       12.0110           0
     17046 MEMB     120      DOPC     H14X     HAL2     0.900000E-01   1.00800           0
     17047 MEMB     120      DOPC     H14Y     HAL2     0.900000E-01   1.00800           0
     17048 MEMB     120      DOPC     C315     CTL2    -0.180000       12.0110           0
     17049 MEMB     120      DOPC     H15X     HAL2     0.900000E-01   1.00800           0
     17050 MEMB     120      DOPC     H15Y     HAL2     0.900000E-01   1.00800           0
     17051 MEMB     120      DOPC     C316     CTL2    -0.180000       12.0110           0
     17052 MEMB     120      DOPC     H16X     HAL2     0.900000E-01   1.00800           0
     17053 MEMB     120      DOPC     H16Y     HAL2     0.900000E-01   1.00800           0
     17054 MEMB     120      DOPC     C317     CTL2    -0.180000       12.0110           0
     17055 MEMB     120      DOPC     H17X     HAL2     0.900000E-01   1.00800           0
     17056 MEMB     120      DOPC     H17Y     HAL2     0.900000E-01   1.00800           0
     17057 MEMB     120      DOPC     C318     CTL3    -0.270000       12.0110           0
     17058 MEMB     120      DOPC     H18X     HAL3     0.900000E-01   1.00800           0
     17059 MEMB     120      DOPC     H18Y     HAL3     0.900000E-01   1.00800           0
     17060 MEMB     120      DOPC     H18Z     HAL3     0.900000E-01   1.00800           0
     17061 MEMB     121      DOPC     N        NTL     -0.600000       14.0070           0
     17062 MEMB     121      DOPC     C12      CTL2    -0.100000       12.0110           0
     17063 MEMB     121      DOPC     H12A     HL       0.250000       1.00800           0
     17064 MEMB     121      DOPC     H12B     HL       0.250000       1.00800           0
     17065 MEMB     121      DOPC     C13      CTL5    -0.350000       12.0110           0
     17066 MEMB     121      DOPC     H13A     HL       0.250000       1.00800           0
     17067 MEMB     121      DOPC     H13B     HL       0.250000       1.00800           0
     17068 MEMB     121      DOPC     H13C     HL       0.250000       1.00800           0
     17069 MEMB     121      DOPC     C14      CTL5    -0.350000       12.0110           0
     17070 MEMB     121      DOPC     H14A     HL       0.250000       1.00800           0
     17071 MEMB     121      DOPC     H14B     HL       0.250000       1.00800           0
     17072 MEMB     121      DOPC     H14C     HL       0.250000       1.00800           0
     17073 MEMB     121      DOPC     C15      CTL5    -0.350000       12.0110           0
     17074 MEMB     121      DOPC     H15A     HL       0.250000       1.00800           0
     17075 MEMB     121      DOPC     H15B     HL       0.250000       1.00800           0
     17076 MEMB     121      DOPC     H15C     HL       0.250000       1.00800           0
     17077 MEMB     121      DOPC     C11      CTL2    -0.800000E-01   12.0110           0
     17078 MEMB     121      DOPC     H11A     HAL2     0.900000E-01   1.00800           0
     17079 MEMB     121      DOPC     H11B     HAL2     0.900000E-01   1.00800           0
     17080 MEMB     121      DOPC     P        PL        1.50000       30.9740           0
     17081 MEMB     121      DOPC     O13      O2L     -0.780000       15.9994           0
     17082 MEMB     121      DOPC     O14      O2L     -0.780000       15.9994           0
     17083 MEMB     121      DOPC     O12      OSLP    -0.570000       15.9994           0
     17084 MEMB     121      DOPC     O11      OSLP    -0.570000       15.9994           0
     17085 MEMB     121      DOPC     C1       CTL2    -0.800000E-01   12.0110           0
     17086 MEMB     121      DOPC     HA       HAL2     0.900000E-01   1.00800           0
     17087 MEMB     121      DOPC     HB       HAL2     0.900000E-01   1.00800           0
     17088 MEMB     121      DOPC     C2       CTL1     0.170000       12.0110           0
     17089 MEMB     121      DOPC     HS       HAL1     0.900000E-01   1.00800           0
     17090 MEMB     121      DOPC     O21      OSL     -0.490000       15.9994           0
     17091 MEMB     121      DOPC     C21      CL       0.900000       12.0110           0
     17092 MEMB     121      DOPC     O22      OBL     -0.630000       15.9994           0
     17093 MEMB     121      DOPC     C22      CTL2    -0.220000       12.0110           0
     17094 MEMB     121      DOPC     H2R      HAL2     0.900000E-01   1.00800           0
     17095 MEMB     121      DOPC     H2S      HAL2     0.900000E-01   1.00800           0
     17096 MEMB     121      DOPC     C3       CTL2     0.800000E-01   12.0110           0
     17097 MEMB     121      DOPC     HX       HAL2     0.900000E-01   1.00800           0
     17098 MEMB     121      DOPC     HY       HAL2     0.900000E-01   1.00800           0
     17099 MEMB     121      DOPC     O31      OSL     -0.490000       15.9994           0
     17100 MEMB     121      DOPC     C31      CL       0.900000       12.0110           0
     17101 MEMB     121      DOPC     O32      OBL     -0.630000       15.9994           0
     17102 MEMB     121      DOPC     C32      CTL2    -0.220000       12.0110           0
     17103 MEMB     121      DOPC     H2X      HAL2     0.900000E-01   1.00800           0
     17104 MEMB     121      DOPC     H2Y      HAL2     0.900000E-01   1.00800           0
     17105 MEMB     121      DOPC     C23      CTL2    -0.180000       12.0110           0
     17106 MEMB     121      DOPC     H3R      HAL2     0.900000E-01   1.00800           0
     17107 MEMB     121      DOPC     H3S      HAL2     0.900000E-01   1.00800           0
     17108 MEMB     121      DOPC     C24      CTL2    -0.180000       12.0110           0
     17109 MEMB     121      DOPC     H4R      HAL2     0.900000E-01   1.00800           0
     17110 MEMB     121      DOPC     H4S      HAL2     0.900000E-01   1.00800           0
     17111 MEMB     121      DOPC     C25      CTL2    -0.180000       12.0110           0
     17112 MEMB     121      DOPC     H5R      HAL2     0.900000E-01   1.00800           0
     17113 MEMB     121      DOPC     H5S      HAL2     0.900000E-01   1.00800           0
     17114 MEMB     121      DOPC     C26      CTL2    -0.180000       12.0110           0
     17115 MEMB     121      DOPC     H6R      HAL2     0.900000E-01   1.00800           0
     17116 MEMB     121      DOPC     H6S      HAL2     0.900000E-01   1.00800           0
     17117 MEMB     121      DOPC     C27      CTL2    -0.180000       12.0110           0
     17118 MEMB     121      DOPC     H7R      HAL2     0.900000E-01   1.00800           0
     17119 MEMB     121      DOPC     H7S      HAL2     0.900000E-01   1.00800           0
     17120 MEMB     121      DOPC     C28      CTL2    -0.180000       12.0110           0
     17121 MEMB     121      DOPC     H8R      HAL2     0.900000E-01   1.00800           0
     17122 MEMB     121      DOPC     H8S      HAL2     0.900000E-01   1.00800           0
     17123 MEMB     121      DOPC     C29      CEL1    -0.150000       12.0110           0
     17124 MEMB     121      DOPC     H9R      HEL1     0.150000       1.00800           0
     17125 MEMB     121      DOPC     C210     CEL1    -0.150000       12.0110           0
     17126 MEMB     121      DOPC     H10R     HEL1     0.150000       1.00800           0
     17127 MEMB     121      DOPC     C211     CTL2    -0.180000       12.0110           0
     17128 MEMB     121      DOPC     H11R     HAL2     0.900000E-01   1.00800           0
     17129 MEMB     121      DOPC     H11S     HAL2     0.900000E-01   1.00800           0
     17130 MEMB     121      DOPC     C212     CTL2    -0.180000       12.0110           0
     17131 MEMB     121      DOPC     H12R     HAL2     0.900000E-01   1.00800           0
     17132 MEMB     121      DOPC     H12S     HAL2     0.900000E-01   1.00800           0
     17133 MEMB     121      DOPC     C213     CTL2    -0.180000       12.0110           0
     17134 MEMB     121      DOPC     H13R     HAL2     0.900000E-01   1.00800           0
     17135 MEMB     121      DOPC     H13S     HAL2     0.900000E-01   1.00800           0
     17136 MEMB     121      DOPC     C214     CTL2    -0.180000       12.0110           0
     17137 MEMB     121      DOPC     H14R     HAL2     0.900000E-01   1.00800           0
     17138 MEMB     121      DOPC     H14S     HAL2     0.900000E-01   1.00800           0
     17139 MEMB     121      DOPC     C215     CTL2    -0.180000       12.0110           0
     17140 MEMB     121      DOPC     H15R     HAL2     0.900000E-01   1.00800           0
     17141 MEMB     121      DOPC     H15S     HAL2     0.900000E-01   1.00800           0
     17142 MEMB     121      DOPC     C216     CTL2    -0.180000       12.0110           0
     17143 MEMB     121      DOPC     H16R     HAL2     0.900000E-01   1.00800           0
     17144 MEMB     121      DOPC     H16S     HAL2     0.900000E-01   1.00800           0
     17145 MEMB     121      DOPC     C217     CTL2    -0.180000       12.0110           0
     17146 MEMB     121      DOPC     H17R     HAL2     0.900000E-01   1.00800           0
     17147 MEMB     121      DOPC     H17S     HAL2     0.900000E-01   1.00800           0
     17148 MEMB     121      DOPC     C218     CTL3    -0.270000       12.0110           0
     17149 MEMB     121      DOPC     H18R     HAL3     0.900000E-01   1.00800           0
     17150 MEMB     121      DOPC     H18S     HAL3     0.900000E-01   1.00800           0
     17151 MEMB     121      DOPC     H18T     HAL3     0.900000E-01   1.00800           0
     17152 MEMB     121      DOPC     C33      CTL2    -0.180000       12.0110           0
     17153 MEMB     121      DOPC     H3X      HAL2     0.900000E-01   1.00800           0
     17154 MEMB     121      DOPC     H3Y      HAL2     0.900000E-01   1.00800           0
     17155 MEMB     121      DOPC     C34      CTL2    -0.180000       12.0110           0
     17156 MEMB     121      DOPC     H4X      HAL2     0.900000E-01   1.00800           0
     17157 MEMB     121      DOPC     H4Y      HAL2     0.900000E-01   1.00800           0
     17158 MEMB     121      DOPC     C35      CTL2    -0.180000       12.0110           0
     17159 MEMB     121      DOPC     H5X      HAL2     0.900000E-01   1.00800           0
     17160 MEMB     121      DOPC     H5Y      HAL2     0.900000E-01   1.00800           0
     17161 MEMB     121      DOPC     C36      CTL2    -0.180000       12.0110           0
     17162 MEMB     121      DOPC     H6X      HAL2     0.900000E-01   1.00800           0
     17163 MEMB     121      DOPC     H6Y      HAL2     0.900000E-01   1.00800           0
     17164 MEMB     121      DOPC     C37      CTL2    -0.180000       12.0110           0
     17165 MEMB     121      DOPC     H7X      HAL2     0.900000E-01   1.00800           0
     17166 MEMB     121      DOPC     H7Y      HAL2     0.900000E-01   1.00800           0
     17167 MEMB     121      DOPC     C38      CTL2    -0.180000       12.0110           0
     17168 MEMB     121      DOPC     H8X      HAL2     0.900000E-01   1.00800           0
     17169 MEMB     121      DOPC     H8Y      HAL2     0.900000E-01   1.00800           0
     17170 MEMB     121      DOPC     C39      CEL1    -0.150000       12.0110           0
     17171 MEMB     121      DOPC     H9X      HEL1     0.150000       1.00800           0
     17172 MEMB     121      DOPC     C310     CEL1    -0.150000       12.0110           0
     17173 MEMB     121      DOPC     H10X     HEL1     0.150000       1.00800           0
     17174 MEMB     121      DOPC     C311     CTL2    -0.180000       12.0110           0
     17175 MEMB     121      DOPC     H11X     HAL2     0.900000E-01   1.00800           0
     17176 MEMB     121      DOPC     H11Y     HAL2     0.900000E-01   1.00800           0
     17177 MEMB     121      DOPC     C312     CTL2    -0.180000       12.0110           0
     17178 MEMB     121      DOPC     H12X     HAL2     0.900000E-01   1.00800           0
     17179 MEMB     121      DOPC     H12Y     HAL2     0.900000E-01   1.00800           0
     17180 MEMB     121      DOPC     C313     CTL2    -0.180000       12.0110           0
     17181 MEMB     121      DOPC     H13X     HAL2     0.900000E-01   1.00800           0
     17182 MEMB     121      DOPC     H13Y     HAL2     0.900000E-01   1.00800           0
     17183 MEMB     121      DOPC     C314     CTL2    -0.180000       12.0110           0
     17184 MEMB     121      DOPC     H14X     HAL2     0.900000E-01   1.00800           0
     17185 MEMB     121      DOPC     H14Y     HAL2     0.900000E-01   1.00800           0
     17186 MEMB     121      DOPC     C315     CTL2    -0.180000       12.0110           0
     17187 MEMB     121      DOPC     H15X     HAL2     0.900000E-01   1.00800           0
     17188 MEMB     121      DOPC     H15Y     HAL2     0.900000E-01   1.00800           0
     17189 MEMB     121      DOPC     C316     CTL2    -0.180000       12.0110           0
     17190 MEMB     121      DOPC     H16X     HAL2     0.900000E-01   1.00800           0
     17191 MEMB     121      DOPC     H16Y     HAL2     0.900000E-01   1.00800           0
     17192 MEMB     121      DOPC     C317     CTL2    -0.180000       12.0110           0
     17193 MEMB     121      DOPC     H17X     HAL2     0.900000E-01   1.00800           0
     17194 MEMB     121      DOPC     H17Y     HAL2     0.900000E-01   1.00800           0
     17195 MEMB     121      DOPC     C318     CTL3    -0.270000       12.0110           0
     17196 MEMB     121      DOPC     H18X     HAL3     0.900000E-01   1.00800           0
     17197 MEMB     121      DOPC     H18Y     HAL3     0.900000E-01   1.00800           0
     17198 MEMB     121      DOPC     H18Z     HAL3     0.900000E-01   1.00800           0
     17199 MEMB     122      DOPC     N        NTL     -0.600000       14.0070           0
     17200 MEMB     122      DOPC     C12      CTL2    -0.100000       12.0110           0
     17201 MEMB     122      DOPC     H12A     HL       0.250000       1.00800           0
     17202 MEMB     122      DOPC     H12B     HL       0.250000       1.00800           0
     17203 MEMB     122      DOPC     C13      CTL5    -0.350000       12.0110           0
     17204 MEMB     122      DOPC     H13A     HL       0.250000       1.00800           0
     17205 MEMB     122      DOPC     H13B     HL       0.250000       1.00800           0
     17206 MEMB     122      DOPC     H13C     HL       0.250000       1.00800           0
     17207 MEMB     122      DOPC     C14      CTL5    -0.350000       12.0110           0
     17208 MEMB     122      DOPC     H14A     HL       0.250000       1.00800           0
     17209 MEMB     122      DOPC     H14B     HL       0.250000       1.00800           0
     17210 MEMB     122      DOPC     H14C     HL       0.250000       1.00800           0
     17211 MEMB     122      DOPC     C15      CTL5    -0.350000       12.0110           0
     17212 MEMB     122      DOPC     H15A     HL       0.250000       1.00800           0
     17213 MEMB     122      DOPC     H15B     HL       0.250000       1.00800           0
     17214 MEMB     122      DOPC     H15C     HL       0.250000       1.00800           0
     17215 MEMB     122      DOPC     C11      CTL2    -0.800000E-01   12.0110           0
     17216 MEMB     122      DOPC     H11A     HAL2     0.900000E-01   1.00800           0
     17217 MEMB     122      DOPC     H11B     HAL2     0.900000E-01   1.00800           0
     17218 MEMB     122      DOPC     P        PL        1.50000       30.9740           0
     17219 MEMB     122      DOPC     O13      O2L     -0.780000       15.9994           0
     17220 MEMB     122      DOPC     O14      O2L     -0.780000       15.9994           0
     17221 MEMB     122      DOPC     O12      OSLP    -0.570000       15.9994           0
     17222 MEMB     122      DOPC     O11      OSLP    -0.570000       15.9994           0
     17223 MEMB     122      DOPC     C1       CTL2    -0.800000E-01   12.0110           0
     17224 MEMB     122      DOPC     HA       HAL2     0.900000E-01   1.00800           0
     17225 MEMB     122      DOPC     HB       HAL2     0.900000E-01   1.00800           0
     17226 MEMB     122      DOPC     C2       CTL1     0.170000       12.0110           0
     17227 MEMB     122      DOPC     HS       HAL1     0.900000E-01   1.00800           0
     17228 MEMB     122      DOPC     O21      OSL     -0.490000       15.9994           0
     17229 MEMB     122      DOPC     C21      CL       0.900000       12.0110           0
     17230 MEMB     122      DOPC     O22      OBL     -0.630000       15.9994           0
     17231 MEMB     122      DOPC     C22      CTL2    -0.220000       12.0110           0
     17232 MEMB     122      DOPC     H2R      HAL2     0.900000E-01   1.00800           0
     17233 MEMB     122      DOPC     H2S      HAL2     0.900000E-01   1.00800           0
     17234 MEMB     122      DOPC     C3       CTL2     0.800000E-01   12.0110           0
     17235 MEMB     122      DOPC     HX       HAL2     0.900000E-01   1.00800           0
     17236 MEMB     122      DOPC     HY       HAL2     0.900000E-01   1.00800           0
     17237 MEMB     122      DOPC     O31      OSL     -0.490000       15.9994           0
     17238 MEMB     122      DOPC     C31      CL       0.900000       12.0110           0
     17239 MEMB     122      DOPC     O32      OBL     -0.630000       15.9994           0
     17240 MEMB     122      DOPC     C32      CTL2    -0.220000       12.0110           0
     17241 MEMB     122      DOPC     H2X      HAL2     0.900000E-01   1.00800           0
     17242 MEMB     122      DOPC     H2Y      HAL2     0.900000E-01   1.00800           0
     17243 MEMB     122      DOPC     C23      CTL2    -0.180000       12.0110           0
     17244 MEMB     122      DOPC     H3R      HAL2     0.900000E-01   1.00800           0
     17245 MEMB     122      DOPC     H3S      HAL2     0.900000E-01   1.00800           0
     17246 MEMB     122      DOPC     C24      CTL2    -0.180000       12.0110           0
     17247 MEMB     122      DOPC     H4R      HAL2     0.900000E-01   1.00800           0
     17248 MEMB     122      DOPC     H4S      HAL2     0.900000E-01   1.00800           0
     17249 MEMB     122      DOPC     C25      CTL2    -0.180000       12.0110           0
     17250 MEMB     122      DOPC     H5R      HAL2     0.900000E-01   1.00800           0
     17251 MEMB     122      DOPC     H5S      HAL2     0.900000E-01   1.00800           0
     17252 MEMB     122      DOPC     C26      CTL2    -0.180000       12.0110           0
     17253 MEMB     122      DOPC     H6R      HAL2     0.900000E-01   1.00800           0
     17254 MEMB     122      DOPC     H6S      HAL2     0.900000E-01   1.00800           0
     17255 MEMB     122      DOPC     C27      CTL2    -0.180000       12.0110           0
     17256 MEMB     122      DOPC     H7R      HAL2     0.900000E-01   1.00800           0
     17257 MEMB     122      DOPC     H7S      HAL2     0.900000E-01   1.00800           0
     17258 MEMB     122      DOPC     C28      CTL2    -0.180000       12.0110           0
     17259 MEMB     122      DOPC     H8R      HAL2     0.900000E-01   1.00800           0
     17260 MEMB     122      DOPC     H8S      HAL2     0.900000E-01   1.00800           0
     17261 MEMB     122      DOPC     C29      CEL1    -0.150000       12.0110           0
     17262 MEMB     122      DOPC     H9R      HEL1     0.150000       1.00800           0
     17263 MEMB     122      DOPC     C210     CEL1    -0.150000       12.0110           0
     17264 MEMB     122      DOPC     H10R     HEL1     0.150000       1.00800           0
     17265 MEMB     122      DOPC     C211     CTL2    -0.180000       12.0110           0
     17266 MEMB     122      DOPC     H11R     HAL2     0.900000E-01   1.00800           0
     17267 MEMB     122      DOPC     H11S     HAL2     0.900000E-01   1.00800           0
     17268 MEMB     122      DOPC     C212     CTL2    -0.180000       12.0110           0
     17269 MEMB     122      DOPC     H12R     HAL2     0.900000E-01   1.00800           0
     17270 MEMB     122      DOPC     H12S     HAL2     0.900000E-01   1.00800           0
     17271 MEMB     122      DOPC     C213     CTL2    -0.180000       12.0110           0
     17272 MEMB     122      DOPC     H13R     HAL2     0.900000E-01   1.00800           0
     17273 MEMB     122      DOPC     H13S     HAL2     0.900000E-01   1.00800           0
     17274 MEMB     122      DOPC     C214     CTL2    -0.180000       12.0110           0
     17275 MEMB     122      DOPC     H14R     HAL2     0.900000E-01   1.00800           0
     17276 MEMB     122      DOPC     H14S     HAL2     0.900000E-01   1.00800           0
     17277 MEMB     122      DOPC     C215     CTL2    -0.180000       12.0110           0
     17278 MEMB     122      DOPC     H15R     HAL2     0.900000E-01   1.00800           0
     17279 MEMB     122      DOPC     H15S     HAL2     0.900000E-01   1.00800           0
     17280 MEMB     122      DOPC     C216     CTL2    -0.180000       12.0110           0
     17281 MEMB     122      DOPC     H16R     HAL2     0.900000E-01   1.00800           0
     17282 MEMB     122      DOPC     H16S     HAL2     0.900000E-01   1.00800           0
     17283 MEMB     122      DOPC     C217     CTL2    -0.180000       12.0110           0
     17284 MEMB     122      DOPC     H17R     HAL2     0.900000E-01   1.00800           0
     17285 MEMB     122      DOPC     H17S     HAL2     0.900000E-01   1.00800           0
     17286 MEMB     122      DOPC     C218     CTL3    -0.270000       12.0110           0
     17287 MEMB     122      DOPC     H18R     HAL3     0.900000E-01   1.00800           0
     17288 MEMB     122      DOPC     H18S     HAL3     0.900000E-01   1.00800           0
     17289 MEMB     122      DOPC     H18T     HAL3     0.900000E-01   1.00800           0
     17290 MEMB     122      DOPC     C33      CTL2    -0.180000       12.0110           0
     17291 MEMB     122      DOPC     H3X      HAL2     0.900000E-01   1.00800           0
     17292 MEMB     122      DOPC     H3Y      HAL2     0.900000E-01   1.00800           0
     17293 MEMB     122      DOPC     C34      CTL2    -0.180000       12.0110           0
     17294 MEMB     122      DOPC     H4X      HAL2     0.900000E-01   1.00800           0
     17295 MEMB     122      DOPC     H4Y      HAL2     0.900000E-01   1.00800           0
     17296 MEMB     122      DOPC     C35      CTL2    -0.180000       12.0110           0
     17297 MEMB     122      DOPC     H5X      HAL2     0.900000E-01   1.00800           0
     17298 MEMB     122      DOPC     H5Y      HAL2     0.900000E-01   1.00800           0
     17299 MEMB     122      DOPC     C36      CTL2    -0.180000       12.0110           0
     17300 MEMB     122      DOPC     H6X      HAL2     0.900000E-01   1.00800           0
     17301 MEMB     122      DOPC     H6Y      HAL2     0.900000E-01   1.00800           0
     17302 MEMB     122      DOPC     C37      CTL2    -0.180000       12.0110           0
     17303 MEMB     122      DOPC     H7X      HAL2     0.900000E-01   1.00800           0
     17304 MEMB     122      DOPC     H7Y      HAL2     0.900000E-01   1.00800           0
     17305 MEMB     122      DOPC     C38      CTL2    -0.180000       12.0110           0
     17306 MEMB     122      DOPC     H8X      HAL2     0.900000E-01   1.00800           0
     17307 MEMB     122      DOPC     H8Y      HAL2     0.900000E-01   1.00800           0
     17308 MEMB     122      DOPC     C39      CEL1    -0.150000       12.0110           0
     17309 MEMB     122      DOPC     H9X      HEL1     0.150000       1.00800           0
     17310 MEMB     122      DOPC     C310     CEL1    -0.150000       12.0110           0
     17311 MEMB     122      DOPC     H10X     HEL1     0.150000       1.00800           0
     17312 MEMB     122      DOPC     C311     CTL2    -0.180000       12.0110           0
     17313 MEMB     122      DOPC     H11X     HAL2     0.900000E-01   1.00800           0
     17314 MEMB     122      DOPC     H11Y     HAL2     0.900000E-01   1.00800           0
     17315 MEMB     122      DOPC     C312     CTL2    -0.180000       12.0110           0
     17316 MEMB     122      DOPC     H12X     HAL2     0.900000E-01   1.00800           0
     17317 MEMB     122      DOPC     H12Y     HAL2     0.900000E-01   1.00800           0
     17318 MEMB     122      DOPC     C313     CTL2    -0.180000       12.0110           0
     17319 MEMB     122      DOPC     H13X     HAL2     0.900000E-01   1.00800           0
     17320 MEMB     122      DOPC     H13Y     HAL2     0.900000E-01   1.00800           0
     17321 MEMB     122      DOPC     C314     CTL2    -0.180000       12.0110           0
     17322 MEMB     122      DOPC     H14X     HAL2     0.900000E-01   1.00800           0
     17323 MEMB     122      DOPC     H14Y     HAL2     0.900000E-01   1.00800           0
     17324 MEMB     122      DOPC     C315     CTL2    -0.180000       12.0110           0
     17325 MEMB     122      DOPC     H15X     HAL2     0.900000E-01   1.00800           0
     17326 MEMB     122      DOPC     H15Y     HAL2     0.900000E-01   1.00800           0
     17327 MEMB     122      DOPC     C316     CTL2    -0.180000       12.0110           0
     17328 MEMB     122      DOPC     H16X     HAL2     0.900000E-01   1.00800           0
     17329 MEMB     122      DOPC     H16Y     HAL2     0.900000E-01   1.00800           0
     17330 MEMB     122      DOPC     C317     CTL2    -0.180000       12.0110           0
     17331 MEMB     122      DOPC     H17X     HAL2     0.900000E-01   1.00800           0
     17332 MEMB     122      DOPC     H17Y     HAL2     0.900000E-01   1.00800           0
     17333 MEMB     122      DOPC     C318     CTL3    -0.270000       12.0110           0
     17334 MEMB     122      DOPC     H18X     HAL3     0.900000E-01   1.00800           0
     17335 MEMB     122      DOPC     H18Y     HAL3     0.900000E-01   1.00800           0
     17336 MEMB     122      DOPC     H18Z     HAL3     0.900000E-01   1.00800           0
     17337 MEMB     123      DOPC     N        NTL     -0.600000       14.0070           0
     17338 MEMB     123      DOPC     C12      CTL2    -0.100000       12.0110           0
     17339 MEMB     123      DOPC     H12A     HL       0.250000       1.00800           0
     17340 MEMB     123      DOPC     H12B     HL       0.250000       1.00800           0
     17341 MEMB     123      DOPC     C13      CTL5    -0.350000       12.0110           0
     17342 MEMB     123      DOPC     H13A     HL       0.250000       1.00800           0
     17343 MEMB     123      DOPC     H13B     HL       0.250000       1.00800           0
     17344 MEMB     123      DOPC     H13C     HL       0.250000       1.00800           0
     17345 MEMB     123      DOPC     C14      CTL5    -0.350000       12.0110           0
     17346 MEMB     123      DOPC     H14A     HL       0.250000       1.00800           0
     17347 MEMB     123      DOPC     H14B     HL       0.250000       1.00800           0
     17348 MEMB     123      DOPC     H14C     HL       0.250000       1.00800           0
     17349 MEMB     123      DOPC     C15      CTL5    -0.350000       12.0110           0
     17350 MEMB     123      DOPC     H15A     HL       0.250000       1.00800           0
     17351 MEMB     123      DOPC     H15B     HL       0.250000       1.00800           0
     17352 MEMB     123      DOPC     H15C     HL       0.250000       1.00800           0
     17353 MEMB     123      DOPC     C11      CTL2    -0.800000E-01   12.0110           0
     17354 MEMB     123      DOPC     H11A     HAL2     0.900000E-01   1.00800           0
     17355 MEMB     123      DOPC     H11B     HAL2     0.900000E-01   1.00800           0
     17356 MEMB     123      DOPC     P        PL        1.50000       30.9740           0
     17357 MEMB     123      DOPC     O13      O2L     -0.780000       15.9994           0
     17358 MEMB     123      DOPC     O14      O2L     -0.780000       15.9994           0
     17359 MEMB     123      DOPC     O12      OSLP    -0.570000       15.9994           0
     17360 MEMB     123      DOPC     O11      OSLP    -0.570000       15.9994           0
     17361 MEMB     123      DOPC     C1       CTL2    -0.800000E-01   12.0110           0
     17362 MEMB     123      DOPC     HA       HAL2     0.900000E-01   1.00800           0
     17363 MEMB     123      DOPC     HB       HAL2     0.900000E-01   1.00800           0
     17364 MEMB     123      DOPC     C2       CTL1     0.170000       12.0110           0
     17365 MEMB     123      DOPC     HS       HAL1     0.900000E-01   1.00800           0
     17366 MEMB     123      DOPC     O21      OSL     -0.490000       15.9994           0
     17367 MEMB     123      DOPC     C21      CL       0.900000       12.0110           0
     17368 MEMB     123      DOPC     O22      OBL     -0.630000       15.9994           0
     17369 MEMB     123      DOPC     C22      CTL2    -0.220000       12.0110           0
     17370 MEMB     123      DOPC     H2R      HAL2     0.900000E-01   1.00800           0
     17371 MEMB     123      DOPC     H2S      HAL2     0.900000E-01   1.00800           0
     17372 MEMB     123      DOPC     C3       CTL2     0.800000E-01   12.0110           0
     17373 MEMB     123      DOPC     HX       HAL2     0.900000E-01   1.00800           0
     17374 MEMB     123      DOPC     HY       HAL2     0.900000E-01   1.00800           0
     17375 MEMB     123      DOPC     O31      OSL     -0.490000       15.9994           0
     17376 MEMB     123      DOPC     C31      CL       0.900000       12.0110           0
     17377 MEMB     123      DOPC     O32      OBL     -0.630000       15.9994           0
     17378 MEMB     123      DOPC     C32      CTL2    -0.220000       12.0110           0
     17379 MEMB     123      DOPC     H2X      HAL2     0.900000E-01   1.00800           0
     17380 MEMB     123      DOPC     H2Y      HAL2     0.900000E-01   1.00800           0
     17381 MEMB     123      DOPC     C23      CTL2    -0.180000       12.0110           0
     17382 MEMB     123      DOPC     H3R      HAL2     0.900000E-01   1.00800           0
     17383 MEMB     123      DOPC     H3S      HAL2     0.900000E-01   1.00800           0
     17384 MEMB     123      DOPC     C24      CTL2    -0.180000       12.0110           0
     17385 MEMB     123      DOPC     H4R      HAL2     0.900000E-01   1.00800           0
     17386 MEMB     123      DOPC     H4S      HAL2     0.900000E-01   1.00800           0
     17387 MEMB     123      DOPC     C25      CTL2    -0.180000       12.0110           0
     17388 MEMB     123      DOPC     H5R      HAL2     0.900000E-01   1.00800           0
     17389 MEMB     123      DOPC     H5S      HAL2     0.900000E-01   1.00800           0
     17390 MEMB     123      DOPC     C26      CTL2    -0.180000       12.0110           0
     17391 MEMB     123      DOPC     H6R      HAL2     0.900000E-01   1.00800           0
     17392 MEMB     123      DOPC     H6S      HAL2     0.900000E-01   1.00800           0
     17393 MEMB     123      DOPC     C27      CTL2    -0.180000       12.0110           0
     17394 MEMB     123      DOPC     H7R      HAL2     0.900000E-01   1.00800           0
     17395 MEMB     123      DOPC     H7S      HAL2     0.900000E-01   1.00800           0
     17396 MEMB     123      DOPC     C28      CTL2    -0.180000       12.0110           0
     17397 MEMB     123      DOPC     H8R      HAL2     0.900000E-01   1.00800           0
     17398 MEMB     123      DOPC     H8S      HAL2     0.900000E-01   1.00800           0
     17399 MEMB     123      DOPC     C29      CEL1    -0.150000       12.0110           0
     17400 MEMB     123      DOPC     H9R      HEL1     0.150000       1.00800           0
     17401 MEMB     123      DOPC     C210     CEL1    -0.150000       12.0110           0
     17402 MEMB     123      DOPC     H10R     HEL1     0.150000       1.00800           0
     17403 MEMB     123      DOPC     C211     CTL2    -0.180000       12.0110           0
     17404 MEMB     123      DOPC     H11R     HAL2     0.900000E-01   1.00800           0
     17405 MEMB     123      DOPC     H11S     HAL2     0.900000E-01   1.00800           0
     17406 MEMB     123      DOPC     C212     CTL2    -0.180000       12.0110           0
     17407 MEMB     123      DOPC     H12R     HAL2     0.900000E-01   1.00800           0
     17408 MEMB     123      DOPC     H12S     HAL2     0.900000E-01   1.00800           0
     17409 MEMB     123      DOPC     C213     CTL2    -0.180000       12.0110           0
     17410 MEMB     123      DOPC     H13R     HAL2     0.900000E-01   1.00800           0
     17411 MEMB     123      DOPC     H13S     HAL2     0.900000E-01   1.00800           0
     17412 MEMB     123      DOPC     C214     CTL2    -0.180000       12.0110           0
     17413 MEMB     123      DOPC     H14R     HAL2     0.900000E-01   1.00800           0
     17414 MEMB     123      DOPC     H14S     HAL2     0.900000E-01   1.00800           0
     17415 MEMB     123      DOPC     C215     CTL2    -0.180000       12.0110           0
     17416 MEMB     123      DOPC     H15R     HAL2     0.900000E-01   1.00800           0
     17417 MEMB     123      DOPC     H15S     HAL2     0.900000E-01   1.00800           0
     17418 MEMB     123      DOPC     C216     CTL2    -0.180000       12.0110           0
     17419 MEMB     123      DOPC     H16R     HAL2     0.900000E-01   1.00800           0
     17420 MEMB     123      DOPC     H16S     HAL2     0.900000E-01   1.00800           0
     17421 MEMB     123      DOPC     C217     CTL2    -0.180000       12.0110           0
     17422 MEMB     123      DOPC     H17R     HAL2     0.900000E-01   1.00800           0
     17423 MEMB     123      DOPC     H17S     HAL2     0.900000E-01   1.00800           0
     17424 MEMB     123      DOPC     C218     CTL3    -0.270000       12.0110           0
     17425 MEMB     123      DOPC     H18R     HAL3     0.900000E-01   1.00800           0
     17426 MEMB     123      DOPC     H18S     HAL3     0.900000E-01   1.00800           0
     17427 MEMB     123      DOPC     H18T     HAL3     0.900000E-01   1.00800           0
     17428 MEMB     123      DOPC     C33      CTL2    -0.180000       12.0110           0
     17429 MEMB     123      DOPC     H3X      HAL2     0.900000E-01   1.00800           0
     17430 MEMB     123      DOPC     H3Y      HAL2     0.900000E-01   1.00800           0
     17431 MEMB     123      DOPC     C34      CTL2    -0.180000       12.0110           0
     17432 MEMB     123      DOPC     H4X      HAL2     0.900000E-01   1.00800           0
     17433 MEMB     123      DOPC     H4Y      HAL2     0.900000E-01   1.00800           0
     17434 MEMB     123      DOPC     C35      CTL2    -0.180000       12.0110           0
     17435 MEMB     123      DOPC     H5X      HAL2     0.900000E-01   1.00800           0
     17436 MEMB     123      DOPC     H5Y      HAL2     0.900000E-01   1.00800           0
     17437 MEMB     123      DOPC     C36      CTL2    -0.180000       12.0110           0
     17438 MEMB     123      DOPC     H6X      HAL2     0.900000E-01   1.00800           0
     17439 MEMB     123      DOPC     H6Y      HAL2     0.900000E-01   1.00800           0
     17440 MEMB     123      DOPC     C37      CTL2    -0.180000       12.0110           0
     17441 MEMB     123      DOPC     H7X      HAL2     0.900000E-01   1.00800           0
     17442 MEMB     123      DOPC     H7Y      HAL2     0.900000E-01   1.00800           0
     17443 MEMB     123      DOPC     C38      CTL2    -0.180000       12.0110           0
     17444 MEMB     123      DOPC     H8X      HAL2     0.900000E-01   1.00800           0
     17445 MEMB     123      DOPC     H8Y      HAL2     0.900000E-01   1.00800           0
     17446 MEMB     123      DOPC     C39      CEL1    -0.150000       12.0110           0
     17447 MEMB     123      DOPC     H9X      HEL1     0.150000       1.00800           0
     17448 MEMB     123      DOPC     C310     CEL1    -0.150000       12.0110           0
     17449 MEMB     123      DOPC     H10X     HEL1     0.150000       1.00800           0
     17450 MEMB     123      DOPC     C311     CTL2    -0.180000       12.0110           0
     17451 MEMB     123      DOPC     H11X     HAL2     0.900000E-01   1.00800           0
     17452 MEMB     123      DOPC     H11Y     HAL2     0.900000E-01   1.00800           0
     17453 MEMB     123      DOPC     C312     CTL2    -0.180000       12.0110           0
     17454 MEMB     123      DOPC     H12X     HAL2     0.900000E-01   1.00800           0
     17455 MEMB     123      DOPC     H12Y     HAL2     0.900000E-01   1.00800           0
     17456 MEMB     123      DOPC     C313     CTL2    -0.180000       12.0110           0
     17457 MEMB     123      DOPC     H13X     HAL2     0.900000E-01   1.00800           0
     17458 MEMB     123      DOPC     H13Y     HAL2     0.900000E-01   1.00800           0
     17459 MEMB     123      DOPC     C314     CTL2    -0.180000       12.0110           0
     17460 MEMB     123      DOPC     H14X     HAL2     0.900000E-01   1.00800           0
     17461 MEMB     123      DOPC     H14Y     HAL2     0.900000E-01   1.00800           0
     17462 MEMB     123      DOPC     C315     CTL2    -0.180000       12.0110           0
     17463 MEMB     123      DOPC     H15X     HAL2     0.900000E-01   1.00800           0
     17464 MEMB     123      DOPC     H15Y     HAL2     0.900000E-01   1.00800           0
     17465 MEMB     123      DOPC     C316     CTL2    -0.180000       12.0110           0
     17466 MEMB     123      DOPC     H16X     HAL2     0.900000E-01   1.00800           0
     17467 MEMB     123      DOPC     H16Y     HAL2     0.900000E-01   1.00800           0
     17468 MEMB     123      DOPC     C317     CTL2    -0.180000       12.0110           0
     17469 MEMB     123      DOPC     H17X     HAL2     0.900000E-01   1.00800           0
     17470 MEMB     123      DOPC     H17Y     HAL2     0.900000E-01   1.00800           0
     17471 MEMB     123      DOPC     C318     CTL3    -0.270000       12.0110           0
     17472 MEMB     123      DOPC     H18X     HAL3     0.900000E-01   1.00800           0
     17473 MEMB     123      DOPC     H18Y     HAL3     0.900000E-01   1.00800           0
     17474 MEMB     123      DOPC     H18Z     HAL3     0.900000E-01   1.00800           0
     17475 MEMB     124      DOPC     N        NTL     -0.600000       14.0070           0
     17476 MEMB     124      DOPC     C12      CTL2    -0.100000       12.0110           0
     17477 MEMB     124      DOPC     H12A     HL       0.250000       1.00800           0
     17478 MEMB     124      DOPC     H12B     HL       0.250000       1.00800           0
     17479 MEMB     124      DOPC     C13      CTL5    -0.350000       12.0110           0
     17480 MEMB     124      DOPC     H13A     HL       0.250000       1.00800           0
     17481 MEMB     124      DOPC     H13B     HL       0.250000       1.00800           0
     17482 MEMB     124      DOPC     H13C     HL       0.250000       1.00800           0
     17483 MEMB     124      DOPC     C14      CTL5    -0.350000       12.0110           0
     17484 MEMB     124      DOPC     H14A     HL       0.250000       1.00800           0
     17485 MEMB     124      DOPC     H14B     HL       0.250000       1.00800           0
     17486 MEMB     124      DOPC     H14C     HL       0.250000       1.00800           0
     17487 MEMB     124      DOPC     C15      CTL5    -0.350000       12.0110           0
     17488 MEMB     124      DOPC     H15A     HL       0.250000       1.00800           0
     17489 MEMB     124      DOPC     H15B     HL       0.250000       1.00800           0
     17490 MEMB     124      DOPC     H15C     HL       0.250000       1.00800           0
     17491 MEMB     124      DOPC     C11      CTL2    -0.800000E-01   12.0110           0
     17492 MEMB     124      DOPC     H11A     HAL2     0.900000E-01   1.00800           0
     17493 MEMB     124      DOPC     H11B     HAL2     0.900000E-01   1.00800           0
     17494 MEMB     124      DOPC     P        PL        1.50000       30.9740           0
     17495 MEMB     124      DOPC     O13      O2L     -0.780000       15.9994           0
     17496 MEMB     124      DOPC     O14      O2L     -0.780000       15.9994           0
     17497 MEMB     124      DOPC     O12      OSLP    -0.570000       15.9994           0
     17498 MEMB     124      DOPC     O11      OSLP    -0.570000       15.9994           0
     17499 MEMB     124      DOPC     C1       CTL2    -0.800000E-01   12.0110           0
     17500 MEMB     124      DOPC     HA       HAL2     0.900000E-01   1.00800           0
     17501 MEMB     124      DOPC     HB       HAL2     0.900000E-01   1.00800           0
     17502 MEMB     124      DOPC     C2       CTL1     0.170000       12.0110           0
     17503 MEMB     124      DOPC     HS       HAL1     0.900000E-01   1.00800           0
     17504 MEMB     124      DOPC     O21      OSL     -0.490000       15.9994           0
     17505 MEMB     124      DOPC     C21      CL       0.900000       12.0110           0
     17506 MEMB     124      DOPC     O22      OBL     -0.630000       15.9994           0
     17507 MEMB     124      DOPC     C22      CTL2    -0.220000       12.0110           0
     17508 MEMB     124      DOPC     H2R      HAL2     0.900000E-01   1.00800           0
     17509 MEMB     124      DOPC     H2S      HAL2     0.900000E-01   1.00800           0
     17510 MEMB     124      DOPC     C3       CTL2     0.800000E-01   12.0110           0
     17511 MEMB     124      DOPC     HX       HAL2     0.900000E-01   1.00800           0
     17512 MEMB     124      DOPC     HY       HAL2     0.900000E-01   1.00800           0
     17513 MEMB     124      DOPC     O31      OSL     -0.490000       15.9994           0
     17514 MEMB     124      DOPC     C31      CL       0.900000       12.0110           0
     17515 MEMB     124      DOPC     O32      OBL     -0.630000       15.9994           0
     17516 MEMB     124      DOPC     C32      CTL2    -0.220000       12.0110           0
     17517 MEMB     124      DOPC     H2X      HAL2     0.900000E-01   1.00800           0
     17518 MEMB     124      DOPC     H2Y      HAL2     0.900000E-01   1.00800           0
     17519 MEMB     124      DOPC     C23      CTL2    -0.180000       12.0110           0
     17520 MEMB     124      DOPC     H3R      HAL2     0.900000E-01   1.00800           0
     17521 MEMB     124      DOPC     H3S      HAL2     0.900000E-01   1.00800           0
     17522 MEMB     124      DOPC     C24      CTL2    -0.180000       12.0110           0
     17523 MEMB     124      DOPC     H4R      HAL2     0.900000E-01   1.00800           0
     17524 MEMB     124      DOPC     H4S      HAL2     0.900000E-01   1.00800           0
     17525 MEMB     124      DOPC     C25      CTL2    -0.180000       12.0110           0
     17526 MEMB     124      DOPC     H5R      HAL2     0.900000E-01   1.00800           0
     17527 MEMB     124      DOPC     H5S      HAL2     0.900000E-01   1.00800           0
     17528 MEMB     124      DOPC     C26      CTL2    -0.180000       12.0110           0
     17529 MEMB     124      DOPC     H6R      HAL2     0.900000E-01   1.00800           0
     17530 MEMB     124      DOPC     H6S      HAL2     0.900000E-01   1.00800           0
     17531 MEMB     124      DOPC     C27      CTL2    -0.180000       12.0110           0
     17532 MEMB     124      DOPC     H7R      HAL2     0.900000E-01   1.00800           0
     17533 MEMB     124      DOPC     H7S      HAL2     0.900000E-01   1.00800           0
     17534 MEMB     124      DOPC     C28      CTL2    -0.180000       12.0110           0
     17535 MEMB     124      DOPC     H8R      HAL2     0.900000E-01   1.00800           0
     17536 MEMB     124      DOPC     H8S      HAL2     0.900000E-01   1.00800           0
     17537 MEMB     124      DOPC     C29      CEL1    -0.150000       12.0110           0
     17538 MEMB     124      DOPC     H9R      HEL1     0.150000       1.00800           0
     17539 MEMB     124      DOPC     C210     CEL1    -0.150000       12.0110           0
     17540 MEMB     124      DOPC     H10R     HEL1     0.150000       1.00800           0
     17541 MEMB     124      DOPC     C211     CTL2    -0.180000       12.0110           0
     17542 MEMB     124      DOPC     H11R     HAL2     0.900000E-01   1.00800           0
     17543 MEMB     124      DOPC     H11S     HAL2     0.900000E-01   1.00800           0
     17544 MEMB     124      DOPC     C212     CTL2    -0.180000       12.0110           0
     17545 MEMB     124      DOPC     H12R     HAL2     0.900000E-01   1.00800           0
     17546 MEMB     124      DOPC     H12S     HAL2     0.900000E-01   1.00800           0
     17547 MEMB     124      DOPC     C213     CTL2    -0.180000       12.0110           0
     17548 MEMB     124      DOPC     H13R     HAL2     0.900000E-01   1.00800           0
     17549 MEMB     124      DOPC     H13S     HAL2     0.900000E-01   1.00800           0
     17550 MEMB     124      DOPC     C214     CTL2    -0.180000       12.0110           0
     17551 MEMB     124      DOPC     H14R     HAL2     0.900000E-01   1.00800           0
     17552 MEMB     124      DOPC     H14S     HAL2     0.900000E-01   1.00800           0
     17553 MEMB     124      DOPC     C215     CTL2    -0.180000       12.0110           0
     17554 MEMB     124      DOPC     H15R     HAL2     0.900000E-01   1.00800           0
     17555 MEMB     124      DOPC     H15S     HAL2     0.900000E-01   1.00800           0
     17556 MEMB     124      DOPC     C216     CTL2    -0.180000       12.0110           0
     17557 MEMB     124      DOPC     H16R     HAL2     0.900000E-01   1.00800           0
     17558 MEMB     124      DOPC     H16S     HAL2     0.900000E-01   1.00800           0
     17559 MEMB     124      DOPC     C217     CTL2    -0.180000       12.0110           0
     17560 MEMB     124      DOPC     H17R     HAL2     0.900000E-01   1.00800           0
     17561 MEMB     124      DOPC     H17S     HAL2     0.900000E-01   1.00800           0
     17562 MEMB     124      DOPC     C218     CTL3    -0.270000       12.0110           0
     17563 MEMB     124      DOPC     H18R     HAL3     0.900000E-01   1.00800           0
     17564 MEMB     124      DOPC     H18S     HAL3     0.900000E-01   1.00800           0
     17565 MEMB     124      DOPC     H18T     HAL3     0.900000E-01   1.00800           0
     17566 MEMB     124      DOPC     C33      CTL2    -0.180000       12.0110           0
     17567 MEMB     124      DOPC     H3X      HAL2     0.900000E-01   1.00800           0
     17568 MEMB     124      DOPC     H3Y      HAL2     0.900000E-01   1.00800           0
     17569 MEMB     124      DOPC     C34      CTL2    -0.180000       12.0110           0
     17570 MEMB     124      DOPC     H4X      HAL2     0.900000E-01   1.00800           0
     17571 MEMB     124      DOPC     H4Y      HAL2     0.900000E-01   1.00800           0
     17572 MEMB     124      DOPC     C35      CTL2    -0.180000       12.0110           0
     17573 MEMB     124      DOPC     H5X      HAL2     0.900000E-01   1.00800           0
     17574 MEMB     124      DOPC     H5Y      HAL2     0.900000E-01   1.00800           0
     17575 MEMB     124      DOPC     C36      CTL2    -0.180000       12.0110           0
     17576 MEMB     124      DOPC     H6X      HAL2     0.900000E-01   1.00800           0
     17577 MEMB     124      DOPC     H6Y      HAL2     0.900000E-01   1.00800           0
     17578 MEMB     124      DOPC     C37      CTL2    -0.180000       12.0110           0
     17579 MEMB     124      DOPC     H7X      HAL2     0.900000E-01   1.00800           0
     17580 MEMB     124      DOPC     H7Y      HAL2     0.900000E-01   1.00800           0
     17581 MEMB     124      DOPC     C38      CTL2    -0.180000       12.0110           0
     17582 MEMB     124      DOPC     H8X      HAL2     0.900000E-01   1.00800           0
     17583 MEMB     124      DOPC     H8Y      HAL2     0.900000E-01   1.00800           0
     17584 MEMB     124      DOPC     C39      CEL1    -0.150000       12.0110           0
     17585 MEMB     124      DOPC     H9X      HEL1     0.150000       1.00800           0
     17586 MEMB     124      DOPC     C310     CEL1    -0.150000       12.0110           0
     17587 MEMB     124      DOPC     H10X     HEL1     0.150000       1.00800           0
     17588 MEMB     124      DOPC     C311     CTL2    -0.180000       12.0110           0
     17589 MEMB     124      DOPC     H11X     HAL2     0.900000E-01   1.00800           0
     17590 MEMB     124      DOPC     H11Y     HAL2     0.900000E-01   1.00800           0
     17591 MEMB     124      DOPC     C312     CTL2    -0.180000       12.0110           0
     17592 MEMB     124      DOPC     H12X     HAL2     0.900000E-01   1.00800           0
     17593 MEMB     124      DOPC     H12Y     HAL2     0.900000E-01   1.00800           0
     17594 MEMB     124      DOPC     C313     CTL2    -0.180000       12.0110           0
     17595 MEMB     124      DOPC     H13X     HAL2     0.900000E-01   1.00800           0
     17596 MEMB     124      DOPC     H13Y     HAL2     0.900000E-01   1.00800           0
     17597 MEMB     124      DOPC     C314     CTL2    -0.180000       12.0110           0
     17598 MEMB     124      DOPC     H14X     HAL2     0.900000E-01   1.00800           0
     17599 MEMB     124      DOPC     H14Y     HAL2     0.900000E-01   1.00800           0
     17600 MEMB     124      DOPC     C315     CTL2    -0.180000       12.0110           0
     17601 MEMB     124      DOPC     H15X     HAL2     0.900000E-01   1.00800           0
     17602 MEMB     124      DOPC     H15Y     HAL2     0.900000E-01   1.00800           0
     17603 MEMB     124      DOPC     C316     CTL2    -0.180000       12.0110           0
     17604 MEMB     124      DOPC     H16X     HAL2     0.900000E-01   1.00800           0
     17605 MEMB     124      DOPC     H16Y     HAL2     0.900000E-01   1.00800           0
     17606 MEMB     124      DOPC     C317     CTL2    -0.180000       12.0110           0
     17607 MEMB     124      DOPC     H17X     HAL2     0.900000E-01   1.00800           0
     17608 MEMB     124      DOPC     H17Y     HAL2     0.900000E-01   1.00800           0
     17609 MEMB     124      DOPC     C318     CTL3    -0.270000       12.0110           0
     17610 MEMB     124      DOPC     H18X     HAL3     0.900000E-01   1.00800           0
     17611 MEMB     124      DOPC     H18Y     HAL3     0.900000E-01   1.00800           0
     17612 MEMB     124      DOPC     H18Z     HAL3     0.900000E-01   1.00800           0
     17613 MEMB     125      DOPC     N        NTL     -0.600000       14.0070           0
     17614 MEMB     125      DOPC     C12      CTL2    -0.100000       12.0110           0
     17615 MEMB     125      DOPC     H12A     HL       0.250000       1.00800           0
     17616 MEMB     125      DOPC     H12B     HL       0.250000       1.00800           0
     17617 MEMB     125      DOPC     C13      CTL5    -0.350000       12.0110           0
     17618 MEMB     125      DOPC     H13A     HL       0.250000       1.00800           0
     17619 MEMB     125      DOPC     H13B     HL       0.250000       1.00800           0
     17620 MEMB     125      DOPC     H13C     HL       0.250000       1.00800           0
     17621 MEMB     125      DOPC     C14      CTL5    -0.350000       12.0110           0
     17622 MEMB     125      DOPC     H14A     HL       0.250000       1.00800           0
     17623 MEMB     125      DOPC     H14B     HL       0.250000       1.00800           0
     17624 MEMB     125      DOPC     H14C     HL       0.250000       1.00800           0
     17625 MEMB     125      DOPC     C15      CTL5    -0.350000       12.0110           0
     17626 MEMB     125      DOPC     H15A     HL       0.250000       1.00800           0
     17627 MEMB     125      DOPC     H15B     HL       0.250000       1.00800           0
     17628 MEMB     125      DOPC     H15C     HL       0.250000       1.00800           0
     17629 MEMB     125      DOPC     C11      CTL2    -0.800000E-01   12.0110           0
     17630 MEMB     125      DOPC     H11A     HAL2     0.900000E-01   1.00800           0
     17631 MEMB     125      DOPC     H11B     HAL2     0.900000E-01   1.00800           0
     17632 MEMB     125      DOPC     P        PL        1.50000       30.9740           0
     17633 MEMB     125      DOPC     O13      O2L     -0.780000       15.9994           0
     17634 MEMB     125      DOPC     O14      O2L     -0.780000       15.9994           0
     17635 MEMB     125      DOPC     O12      OSLP    -0.570000       15.9994           0
     17636 MEMB     125      DOPC     O11      OSLP    -0.570000       15.9994           0
     17637 MEMB     125      DOPC     C1       CTL2    -0.800000E-01   12.0110           0
     17638 MEMB     125      DOPC     HA       HAL2     0.900000E-01   1.00800           0
     17639 MEMB     125      DOPC     HB       HAL2     0.900000E-01   1.00800           0
     17640 MEMB     125      DOPC     C2       CTL1     0.170000       12.0110           0
     17641 MEMB     125      DOPC     HS       HAL1     0.900000E-01   1.00800           0
     17642 MEMB     125      DOPC     O21      OSL     -0.490000       15.9994           0
     17643 MEMB     125      DOPC     C21      CL       0.900000       12.0110           0
     17644 MEMB     125      DOPC     O22      OBL     -0.630000       15.9994           0
     17645 MEMB     125      DOPC     C22      CTL2    -0.220000       12.0110           0
     17646 MEMB     125      DOPC     H2R      HAL2     0.900000E-01   1.00800           0
     17647 MEMB     125      DOPC     H2S      HAL2     0.900000E-01   1.00800           0
     17648 MEMB     125      DOPC     C3       CTL2     0.800000E-01   12.0110           0
     17649 MEMB     125      DOPC     HX       HAL2     0.900000E-01   1.00800           0
     17650 MEMB     125      DOPC     HY       HAL2     0.900000E-01   1.00800           0
     17651 MEMB     125      DOPC     O31      OSL     -0.490000       15.9994           0
     17652 MEMB     125      DOPC     C31      CL       0.900000       12.0110           0
     17653 MEMB     125      DOPC     O32      OBL     -0.630000       15.9994           0
     17654 MEMB     125      DOPC     C32      CTL2    -0.220000       12.0110           0
     17655 MEMB     125      DOPC     H2X      HAL2     0.900000E-01   1.00800           0
     17656 MEMB     125      DOPC     H2Y      HAL2     0.900000E-01   1.00800           0
     17657 MEMB     125      DOPC     C23      CTL2    -0.180000       12.0110           0
     17658 MEMB     125      DOPC     H3R      HAL2     0.900000E-01   1.00800           0
     17659 MEMB     125      DOPC     H3S      HAL2     0.900000E-01   1.00800           0
     17660 MEMB     125      DOPC     C24      CTL2    -0.180000       12.0110           0
     17661 MEMB     125      DOPC     H4R      HAL2     0.900000E-01   1.00800           0
     17662 MEMB     125      DOPC     H4S      HAL2     0.900000E-01   1.00800           0
     17663 MEMB     125      DOPC     C25      CTL2    -0.180000       12.0110           0
     17664 MEMB     125      DOPC     H5R      HAL2     0.900000E-01   1.00800           0
     17665 MEMB     125      DOPC     H5S      HAL2     0.900000E-01   1.00800           0
     17666 MEMB     125      DOPC     C26      CTL2    -0.180000       12.0110           0
     17667 MEMB     125      DOPC     H6R      HAL2     0.900000E-01   1.00800           0
     17668 MEMB     125      DOPC     H6S      HAL2     0.900000E-01   1.00800           0
     17669 MEMB     125      DOPC     C27      CTL2    -0.180000       12.0110           0
     17670 MEMB     125      DOPC     H7R      HAL2     0.900000E-01   1.00800           0
     17671 MEMB     125      DOPC     H7S      HAL2     0.900000E-01   1.00800           0
     17672 MEMB     125      DOPC     C28      CTL2    -0.180000       12.0110           0
     17673 MEMB     125      DOPC     H8R      HAL2     0.900000E-01   1.00800           0
     17674 MEMB     125      DOPC     H8S      HAL2     0.900000E-01   1.00800           0
     17675 MEMB     125      DOPC     C29      CEL1    -0.150000       12.0110           0
     17676 MEMB     125      DOPC     H9R      HEL1     0.150000       1.00800           0
     17677 MEMB     125      DOPC     C210     CEL1    -0.150000       12.0110           0
     17678 MEMB     125      DOPC     H10R     HEL1     0.150000       1.00800           0
     17679 MEMB     125      DOPC     C211     CTL2    -0.180000       12.0110           0
     17680 MEMB     125      DOPC     H11R     HAL2     0.900000E-01   1.00800           0
     17681 MEMB     125      DOPC     H11S     HAL2     0.900000E-01   1.00800           0
     17682 MEMB     125      DOPC     C212     CTL2    -0.180000       12.0110           0
     17683 MEMB     125      DOPC     H12R     HAL2     0.900000E-01   1.00800           0
     17684 MEMB     125      DOPC     H12S     HAL2     0.900000E-01   1.00800           0
     17685 MEMB     125      DOPC     C213     CTL2    -0.180000       12.0110           0
     17686 MEMB     125      DOPC     H13R     HAL2     0.900000E-01   1.00800           0
     17687 MEMB     125      DOPC     H13S     HAL2     0.900000E-01   1.00800           0
     17688 MEMB     125      DOPC     C214     CTL2    -0.180000       12.0110           0
     17689 MEMB     125      DOPC     H14R     HAL2     0.900000E-01   1.00800           0
     17690 MEMB     125      DOPC     H14S     HAL2     0.900000E-01   1.00800           0
     17691 MEMB     125      DOPC     C215     CTL2    -0.180000       12.0110           0
     17692 MEMB     125      DOPC     H15R     HAL2     0.900000E-01   1.00800           0
     17693 MEMB     125      DOPC     H15S     HAL2     0.900000E-01   1.00800           0
     17694 MEMB     125      DOPC     C216     CTL2    -0.180000       12.0110           0
     17695 MEMB     125      DOPC     H16R     HAL2     0.900000E-01   1.00800           0
     17696 MEMB     125      DOPC     H16S     HAL2     0.900000E-01   1.00800           0
     17697 MEMB     125      DOPC     C217     CTL2    -0.180000       12.0110           0
     17698 MEMB     125      DOPC     H17R     HAL2     0.900000E-01   1.00800           0
     17699 MEMB     125      DOPC     H17S     HAL2     0.900000E-01   1.00800           0
     17700 MEMB     125      DOPC     C218     CTL3    -0.270000       12.0110           0
     17701 MEMB     125      DOPC     H18R     HAL3     0.900000E-01   1.00800           0
     17702 MEMB     125      DOPC     H18S     HAL3     0.900000E-01   1.00800           0
     17703 MEMB     125      DOPC     H18T     HAL3     0.900000E-01   1.00800           0
     17704 MEMB     125      DOPC     C33      CTL2    -0.180000       12.0110           0
     17705 MEMB     125      DOPC     H3X      HAL2     0.900000E-01   1.00800           0
     17706 MEMB     125      DOPC     H3Y      HAL2     0.900000E-01   1.00800           0
     17707 MEMB     125      DOPC     C34      CTL2    -0.180000       12.0110           0
     17708 MEMB     125      DOPC     H4X      HAL2     0.900000E-01   1.00800           0
     17709 MEMB     125      DOPC     H4Y      HAL2     0.900000E-01   1.00800           0
     17710 MEMB     125      DOPC     C35      CTL2    -0.180000       12.0110           0
     17711 MEMB     125      DOPC     H5X      HAL2     0.900000E-01   1.00800           0
     17712 MEMB     125      DOPC     H5Y      HAL2     0.900000E-01   1.00800           0
     17713 MEMB     125      DOPC     C36      CTL2    -0.180000       12.0110           0
     17714 MEMB     125      DOPC     H6X      HAL2     0.900000E-01   1.00800           0
     17715 MEMB     125      DOPC     H6Y      HAL2     0.900000E-01   1.00800           0
     17716 MEMB     125      DOPC     C37      CTL2    -0.180000       12.0110           0
     17717 MEMB     125      DOPC     H7X      HAL2     0.900000E-01   1.00800           0
     17718 MEMB     125      DOPC     H7Y      HAL2     0.900000E-01   1.00800           0
     17719 MEMB     125      DOPC     C38      CTL2    -0.180000       12.0110           0
     17720 MEMB     125      DOPC     H8X      HAL2     0.900000E-01   1.00800           0
     17721 MEMB     125      DOPC     H8Y      HAL2     0.900000E-01   1.00800           0
     17722 MEMB     125      DOPC     C39      CEL1    -0.150000       12.0110           0
     17723 MEMB     125      DOPC     H9X      HEL1     0.150000       1.00800           0
     17724 MEMB     125      DOPC     C310     CEL1    -0.150000       12.0110           0
     17725 MEMB     125      DOPC     H10X     HEL1     0.150000       1.00800           0
     17726 MEMB     125      DOPC     C311     CTL2    -0.180000       12.0110           0
     17727 MEMB     125      DOPC     H11X     HAL2     0.900000E-01   1.00800           0
     17728 MEMB     125      DOPC     H11Y     HAL2     0.900000E-01   1.00800           0
     17729 MEMB     125      DOPC     C312     CTL2    -0.180000       12.0110           0
     17730 MEMB     125      DOPC     H12X     HAL2     0.900000E-01   1.00800           0
     17731 MEMB     125      DOPC     H12Y     HAL2     0.900000E-01   1.00800           0
     17732 MEMB     125      DOPC     C313     CTL2    -0.180000       12.0110           0
     17733 MEMB     125      DOPC     H13X     HAL2     0.900000E-01   1.00800           0
     17734 MEMB     125      DOPC     H13Y     HAL2     0.900000E-01   1.00800           0
     17735 MEMB     125      DOPC     C314     CTL2    -0.180000       12.0110           0
     17736 MEMB     125      DOPC     H14X     HAL2     0.900000E-01   1.00800           0
     17737 MEMB     125      DOPC     H14Y     HAL2     0.900000E-01   1.00800           0
     17738 MEMB     125      DOPC     C315     CTL2    -0.180000       12.0110           0
     17739 MEMB     125      DOPC     H15X     HAL2     0.900000E-01   1.00800           0
     17740 MEMB     125      DOPC     H15Y     HAL2     0.900000E-01   1.00800           0
     17741 MEMB     125      DOPC     C316     CTL2    -0.180000       12.0110           0
     17742 MEMB     125      DOPC     H16X     HAL2     0.900000E-01   1.00800           0
     17743 MEMB     125      DOPC     H16Y     HAL2     0.900000E-01   1.00800           0
     17744 MEMB     125      DOPC     C317     CTL2    -0.180000       12.0110           0
     17745 MEMB     125      DOPC     H17X     HAL2     0.900000E-01   1.00800           0
     17746 MEMB     125      DOPC     H17Y     HAL2     0.900000E-01   1.00800           0
     17747 MEMB     125      DOPC     C318     CTL3    -0.270000       12.0110           0
     17748 MEMB     125      DOPC     H18X     HAL3     0.900000E-01   1.00800           0
     17749 MEMB     125      DOPC     H18Y     HAL3     0.900000E-01   1.00800           0
     17750 MEMB     125      DOPC     H18Z     HAL3     0.900000E-01   1.00800           0
     17751 MEMB     126      DOPC     N        NTL     -0.600000       14.0070           0
     17752 MEMB     126      DOPC     C12      CTL2    -0.100000       12.0110           0
     17753 MEMB     126      DOPC     H12A     HL       0.250000       1.00800           0
     17754 MEMB     126      DOPC     H12B     HL       0.250000       1.00800           0
     17755 MEMB     126      DOPC     C13      CTL5    -0.350000       12.0110           0
     17756 MEMB     126      DOPC     H13A     HL       0.250000       1.00800           0
     17757 MEMB     126      DOPC     H13B     HL       0.250000       1.00800           0
     17758 MEMB     126      DOPC     H13C     HL       0.250000       1.00800           0
     17759 MEMB     126      DOPC     C14      CTL5    -0.350000       12.0110           0
     17760 MEMB     126      DOPC     H14A     HL       0.250000       1.00800           0
     17761 MEMB     126      DOPC     H14B     HL       0.250000       1.00800           0
     17762 MEMB     126      DOPC     H14C     HL       0.250000       1.00800           0
     17763 MEMB     126      DOPC     C15      CTL5    -0.350000       12.0110           0
     17764 MEMB     126      DOPC     H15A     HL       0.250000       1.00800           0
     17765 MEMB     126      DOPC     H15B     HL       0.250000       1.00800           0
     17766 MEMB     126      DOPC     H15C     HL       0.250000       1.00800           0
     17767 MEMB     126      DOPC     C11      CTL2    -0.800000E-01   12.0110           0
     17768 MEMB     126      DOPC     H11A     HAL2     0.900000E-01   1.00800           0
     17769 MEMB     126      DOPC     H11B     HAL2     0.900000E-01   1.00800           0
     17770 MEMB     126      DOPC     P        PL        1.50000       30.9740           0
     17771 MEMB     126      DOPC     O13      O2L     -0.780000       15.9994           0
     17772 MEMB     126      DOPC     O14      O2L     -0.780000       15.9994           0
     17773 MEMB     126      DOPC     O12      OSLP    -0.570000       15.9994           0
     17774 MEMB     126      DOPC     O11      OSLP    -0.570000       15.9994           0
     17775 MEMB     126      DOPC     C1       CTL2    -0.800000E-01   12.0110           0
     17776 MEMB     126      DOPC     HA       HAL2     0.900000E-01   1.00800           0
     17777 MEMB     126      DOPC     HB       HAL2     0.900000E-01   1.00800           0
     17778 MEMB     126      DOPC     C2       CTL1     0.170000       12.0110           0
     17779 MEMB     126      DOPC     HS       HAL1     0.900000E-01   1.00800           0
     17780 MEMB     126      DOPC     O21      OSL     -0.490000       15.9994           0
     17781 MEMB     126      DOPC     C21      CL       0.900000       12.0110           0
     17782 MEMB     126      DOPC     O22      OBL     -0.630000       15.9994           0
     17783 MEMB     126      DOPC     C22      CTL2    -0.220000       12.0110           0
     17784 MEMB     126      DOPC     H2R      HAL2     0.900000E-01   1.00800           0
     17785 MEMB     126      DOPC     H2S      HAL2     0.900000E-01   1.00800           0
     17786 MEMB     126      DOPC     C3       CTL2     0.800000E-01   12.0110           0
     17787 MEMB     126      DOPC     HX       HAL2     0.900000E-01   1.00800           0
     17788 MEMB     126      DOPC     HY       HAL2     0.900000E-01   1.00800           0
     17789 MEMB     126      DOPC     O31      OSL     -0.490000       15.9994           0
     17790 MEMB     126      DOPC     C31      CL       0.900000       12.0110           0
     17791 MEMB     126      DOPC     O32      OBL     -0.630000       15.9994           0
     17792 MEMB     126      DOPC     C32      CTL2    -0.220000       12.0110           0
     17793 MEMB     126      DOPC     H2X      HAL2     0.900000E-01   1.00800           0
     17794 MEMB     126      DOPC     H2Y      HAL2     0.900000E-01   1.00800           0
     17795 MEMB     126      DOPC     C23      CTL2    -0.180000       12.0110           0
     17796 MEMB     126      DOPC     H3R      HAL2     0.900000E-01   1.00800           0
     17797 MEMB     126      DOPC     H3S      HAL2     0.900000E-01   1.00800           0
     17798 MEMB     126      DOPC     C24      CTL2    -0.180000       12.0110           0
     17799 MEMB     126      DOPC     H4R      HAL2     0.900000E-01   1.00800           0
     17800 MEMB     126      DOPC     H4S      HAL2     0.900000E-01   1.00800           0
     17801 MEMB     126      DOPC     C25      CTL2    -0.180000       12.0110           0
     17802 MEMB     126      DOPC     H5R      HAL2     0.900000E-01   1.00800           0
     17803 MEMB     126      DOPC     H5S      HAL2     0.900000E-01   1.00800           0
     17804 MEMB     126      DOPC     C26      CTL2    -0.180000       12.0110           0
     17805 MEMB     126      DOPC     H6R      HAL2     0.900000E-01   1.00800           0
     17806 MEMB     126      DOPC     H6S      HAL2     0.900000E-01   1.00800           0
     17807 MEMB     126      DOPC     C27      CTL2    -0.180000       12.0110           0
     17808 MEMB     126      DOPC     H7R      HAL2     0.900000E-01   1.00800           0
     17809 MEMB     126      DOPC     H7S      HAL2     0.900000E-01   1.00800           0
     17810 MEMB     126      DOPC     C28      CTL2    -0.180000       12.0110           0
     17811 MEMB     126      DOPC     H8R      HAL2     0.900000E-01   1.00800           0
     17812 MEMB     126      DOPC     H8S      HAL2     0.900000E-01   1.00800           0
     17813 MEMB     126      DOPC     C29      CEL1    -0.150000       12.0110           0
     17814 MEMB     126      DOPC     H9R      HEL1     0.150000       1.00800           0
     17815 MEMB     126      DOPC     C210     CEL1    -0.150000       12.0110           0
     17816 MEMB     126      DOPC     H10R     HEL1     0.150000       1.00800           0
     17817 MEMB     126      DOPC     C211     CTL2    -0.180000       12.0110           0
     17818 MEMB     126      DOPC     H11R     HAL2     0.900000E-01   1.00800           0
     17819 MEMB     126      DOPC     H11S     HAL2     0.900000E-01   1.00800           0
     17820 MEMB     126      DOPC     C212     CTL2    -0.180000       12.0110           0
     17821 MEMB     126      DOPC     H12R     HAL2     0.900000E-01   1.00800           0
     17822 MEMB     126      DOPC     H12S     HAL2     0.900000E-01   1.00800           0
     17823 MEMB     126      DOPC     C213     CTL2    -0.180000       12.0110           0
     17824 MEMB     126      DOPC     H13R     HAL2     0.900000E-01   1.00800           0
     17825 MEMB     126      DOPC     H13S     HAL2     0.900000E-01   1.00800           0
     17826 MEMB     126      DOPC     C214     CTL2    -0.180000       12.0110           0
     17827 MEMB     126      DOPC     H14R     HAL2     0.900000E-01   1.00800           0
     17828 MEMB     126      DOPC     H14S     HAL2     0.900000E-01   1.00800           0
     17829 MEMB     126      DOPC     C215     CTL2    -0.180000       12.0110           0
     17830 MEMB     126      DOPC     H15R     HAL2     0.900000E-01   1.00800           0
     17831 MEMB     126      DOPC     H15S     HAL2     0.900000E-01   1.00800           0
     17832 MEMB     126      DOPC     C216     CTL2    -0.180000       12.0110           0
     17833 MEMB     126      DOPC     H16R     HAL2     0.900000E-01   1.00800           0
     17834 MEMB     126      DOPC     H16S     HAL2     0.900000E-01   1.00800           0
     17835 MEMB     126      DOPC     C217     CTL2    -0.180000       12.0110           0
     17836 MEMB     126      DOPC     H17R     HAL2     0.900000E-01   1.00800           0
     17837 MEMB     126      DOPC     H17S     HAL2     0.900000E-01   1.00800           0
     17838 MEMB     126      DOPC     C218     CTL3    -0.270000       12.0110           0
     17839 MEMB     126      DOPC     H18R     HAL3     0.900000E-01   1.00800           0
     17840 MEMB     126      DOPC     H18S     HAL3     0.900000E-01   1.00800           0
     17841 MEMB     126      DOPC     H18T     HAL3     0.900000E-01   1.00800           0
     17842 MEMB     126      DOPC     C33      CTL2    -0.180000       12.0110           0
     17843 MEMB     126      DOPC     H3X      HAL2     0.900000E-01   1.00800           0
     17844 MEMB     126      DOPC     H3Y      HAL2     0.900000E-01   1.00800           0
     17845 MEMB     126      DOPC     C34      CTL2    -0.180000       12.0110           0
     17846 MEMB     126      DOPC     H4X      HAL2     0.900000E-01   1.00800           0
     17847 MEMB     126      DOPC     H4Y      HAL2     0.900000E-01   1.00800           0
     17848 MEMB     126      DOPC     C35      CTL2    -0.180000       12.0110           0
     17849 MEMB     126      DOPC     H5X      HAL2     0.900000E-01   1.00800           0
     17850 MEMB     126      DOPC     H5Y      HAL2     0.900000E-01   1.00800           0
     17851 MEMB     126      DOPC     C36      CTL2    -0.180000       12.0110           0
     17852 MEMB     126      DOPC     H6X      HAL2     0.900000E-01   1.00800           0
     17853 MEMB     126      DOPC     H6Y      HAL2     0.900000E-01   1.00800           0
     17854 MEMB     126      DOPC     C37      CTL2    -0.180000       12.0110           0
     17855 MEMB     126      DOPC     H7X      HAL2     0.900000E-01   1.00800           0
     17856 MEMB     126      DOPC     H7Y      HAL2     0.900000E-01   1.00800           0
     17857 MEMB     126      DOPC     C38      CTL2    -0.180000       12.0110           0
     17858 MEMB     126      DOPC     H8X      HAL2     0.900000E-01   1.00800           0
     17859 MEMB     126      DOPC     H8Y      HAL2     0.900000E-01   1.00800           0
     17860 MEMB     126      DOPC     C39      CEL1    -0.150000       12.0110           0
     17861 MEMB     126      DOPC     H9X      HEL1     0.150000       1.00800           0
     17862 MEMB     126      DOPC     C310     CEL1    -0.150000       12.0110           0
     17863 MEMB     126      DOPC     H10X     HEL1     0.150000       1.00800           0
     17864 MEMB     126      DOPC     C311     CTL2    -0.180000       12.0110           0
     17865 MEMB     126      DOPC     H11X     HAL2     0.900000E-01   1.00800           0
     17866 MEMB     126      DOPC     H11Y     HAL2     0.900000E-01   1.00800           0
     17867 MEMB     126      DOPC     C312     CTL2    -0.180000       12.0110           0
     17868 MEMB     126      DOPC     H12X     HAL2     0.900000E-01   1.00800           0
     17869 MEMB     126      DOPC     H12Y     HAL2     0.900000E-01   1.00800           0
     17870 MEMB     126      DOPC     C313     CTL2    -0.180000       12.0110           0
     17871 MEMB     126      DOPC     H13X     HAL2     0.900000E-01   1.00800           0
     17872 MEMB     126      DOPC     H13Y     HAL2     0.900000E-01   1.00800           0
     17873 MEMB     126      DOPC     C314     CTL2    -0.180000       12.0110           0
     17874 MEMB     126      DOPC     H14X     HAL2     0.900000E-01   1.00800           0
     17875 MEMB     126      DOPC     H14Y     HAL2     0.900000E-01   1.00800           0
     17876 MEMB     126      DOPC     C315     CTL2    -0.180000       12.0110           0
     17877 MEMB     126      DOPC     H15X     HAL2     0.900000E-01   1.00800           0
     17878 MEMB     126      DOPC     H15Y     HAL2     0.900000E-01   1.00800           0
     17879 MEMB     126      DOPC     C316     CTL2    -0.180000       12.0110           0
     17880 MEMB     126      DOPC     H16X     HAL2     0.900000E-01   1.00800           0
     17881 MEMB     126      DOPC     H16Y     HAL2     0.900000E-01   1.00800           0
     17882 MEMB     126      DOPC     C317     CTL2    -0.180000       12.0110           0
     17883 MEMB     126      DOPC     H17X     HAL2     0.900000E-01   1.00800           0
     17884 MEMB     126      DOPC     H17Y     HAL2     0.900000E-01   1.00800           0
     17885 MEMB     126      DOPC     C318     CTL3    -0.270000       12.0110           0
     17886 MEMB     126      DOPC     H18X     HAL3     0.900000E-01   1.00800           0
     17887 MEMB     126      DOPC     H18Y     HAL3     0.900000E-01   1.00800           0
     17888 MEMB     126      DOPC     H18Z     HAL3     0.900000E-01   1.00800           0
     17889 MEMB     127      DOPC     N        NTL     -0.600000       14.0070           0
     17890 MEMB     127      DOPC     C12      CTL2    -0.100000       12.0110           0
     17891 MEMB     127      DOPC     H12A     HL       0.250000       1.00800           0
     17892 MEMB     127      DOPC     H12B     HL       0.250000       1.00800           0
     17893 MEMB     127      DOPC     C13      CTL5    -0.350000       12.0110           0
     17894 MEMB     127      DOPC     H13A     HL       0.250000       1.00800           0
     17895 MEMB     127      DOPC     H13B     HL       0.250000       1.00800           0
     17896 MEMB     127      DOPC     H13C     HL       0.250000       1.00800           0
     17897 MEMB     127      DOPC     C14      CTL5    -0.350000       12.0110           0
     17898 MEMB     127      DOPC     H14A     HL       0.250000       1.00800           0
     17899 MEMB     127      DOPC     H14B     HL       0.250000       1.00800           0
     17900 MEMB     127      DOPC     H14C     HL       0.250000       1.00800           0
     17901 MEMB     127      DOPC     C15      CTL5    -0.350000       12.0110           0
     17902 MEMB     127      DOPC     H15A     HL       0.250000       1.00800           0
     17903 MEMB     127      DOPC     H15B     HL       0.250000       1.00800           0
     17904 MEMB     127      DOPC     H15C     HL       0.250000       1.00800           0
     17905 MEMB     127      DOPC     C11      CTL2    -0.800000E-01   12.0110           0
     17906 MEMB     127      DOPC     H11A     HAL2     0.900000E-01   1.00800           0
     17907 MEMB     127      DOPC     H11B     HAL2     0.900000E-01   1.00800           0
     17908 MEMB     127      DOPC     P        PL        1.50000       30.9740           0
     17909 MEMB     127      DOPC     O13      O2L     -0.780000       15.9994           0
     17910 MEMB     127      DOPC     O14      O2L     -0.780000       15.9994           0
     17911 MEMB     127      DOPC     O12      OSLP    -0.570000       15.9994           0
     17912 MEMB     127      DOPC     O11      OSLP    -0.570000       15.9994           0
     17913 MEMB     127      DOPC     C1       CTL2    -0.800000E-01   12.0110           0
     17914 MEMB     127      DOPC     HA       HAL2     0.900000E-01   1.00800           0
     17915 MEMB     127      DOPC     HB       HAL2     0.900000E-01   1.00800           0
     17916 MEMB     127      DOPC     C2       CTL1     0.170000       12.0110           0
     17917 MEMB     127      DOPC     HS       HAL1     0.900000E-01   1.00800           0
     17918 MEMB     127      DOPC     O21      OSL     -0.490000       15.9994           0
     17919 MEMB     127      DOPC     C21      CL       0.900000       12.0110           0
     17920 MEMB     127      DOPC     O22      OBL     -0.630000       15.9994           0
     17921 MEMB     127      DOPC     C22      CTL2    -0.220000       12.0110           0
     17922 MEMB     127      DOPC     H2R      HAL2     0.900000E-01   1.00800           0
     17923 MEMB     127      DOPC     H2S      HAL2     0.900000E-01   1.00800           0
     17924 MEMB     127      DOPC     C3       CTL2     0.800000E-01   12.0110           0
     17925 MEMB     127      DOPC     HX       HAL2     0.900000E-01   1.00800           0
     17926 MEMB     127      DOPC     HY       HAL2     0.900000E-01   1.00800           0
     17927 MEMB     127      DOPC     O31      OSL     -0.490000       15.9994           0
     17928 MEMB     127      DOPC     C31      CL       0.900000       12.0110           0
     17929 MEMB     127      DOPC     O32      OBL     -0.630000       15.9994           0
     17930 MEMB     127      DOPC     C32      CTL2    -0.220000       12.0110           0
     17931 MEMB     127      DOPC     H2X      HAL2     0.900000E-01   1.00800           0
     17932 MEMB     127      DOPC     H2Y      HAL2     0.900000E-01   1.00800           0
     17933 MEMB     127      DOPC     C23      CTL2    -0.180000       12.0110           0
     17934 MEMB     127      DOPC     H3R      HAL2     0.900000E-01   1.00800           0
     17935 MEMB     127      DOPC     H3S      HAL2     0.900000E-01   1.00800           0
     17936 MEMB     127      DOPC     C24      CTL2    -0.180000       12.0110           0
     17937 MEMB     127      DOPC     H4R      HAL2     0.900000E-01   1.00800           0
     17938 MEMB     127      DOPC     H4S      HAL2     0.900000E-01   1.00800           0
     17939 MEMB     127      DOPC     C25      CTL2    -0.180000       12.0110           0
     17940 MEMB     127      DOPC     H5R      HAL2     0.900000E-01   1.00800           0
     17941 MEMB     127      DOPC     H5S      HAL2     0.900000E-01   1.00800           0
     17942 MEMB     127      DOPC     C26      CTL2    -0.180000       12.0110           0
     17943 MEMB     127      DOPC     H6R      HAL2     0.900000E-01   1.00800           0
     17944 MEMB     127      DOPC     H6S      HAL2     0.900000E-01   1.00800           0
     17945 MEMB     127      DOPC     C27      CTL2    -0.180000       12.0110           0
     17946 MEMB     127      DOPC     H7R      HAL2     0.900000E-01   1.00800           0
     17947 MEMB     127      DOPC     H7S      HAL2     0.900000E-01   1.00800           0
     17948 MEMB     127      DOPC     C28      CTL2    -0.180000       12.0110           0
     17949 MEMB     127      DOPC     H8R      HAL2     0.900000E-01   1.00800           0
     17950 MEMB     127      DOPC     H8S      HAL2     0.900000E-01   1.00800           0
     17951 MEMB     127      DOPC     C29      CEL1    -0.150000       12.0110           0
     17952 MEMB     127      DOPC     H9R      HEL1     0.150000       1.00800           0
     17953 MEMB     127      DOPC     C210     CEL1    -0.150000       12.0110           0
     17954 MEMB     127      DOPC     H10R     HEL1     0.150000       1.00800           0
     17955 MEMB     127      DOPC     C211     CTL2    -0.180000       12.0110           0
     17956 MEMB     127      DOPC     H11R     HAL2     0.900000E-01   1.00800           0
     17957 MEMB     127      DOPC     H11S     HAL2     0.900000E-01   1.00800           0
     17958 MEMB     127      DOPC     C212     CTL2    -0.180000       12.0110           0
     17959 MEMB     127      DOPC     H12R     HAL2     0.900000E-01   1.00800           0
     17960 MEMB     127      DOPC     H12S     HAL2     0.900000E-01   1.00800           0
     17961 MEMB     127      DOPC     C213     CTL2    -0.180000       12.0110           0
     17962 MEMB     127      DOPC     H13R     HAL2     0.900000E-01   1.00800           0
     17963 MEMB     127      DOPC     H13S     HAL2     0.900000E-01   1.00800           0
     17964 MEMB     127      DOPC     C214     CTL2    -0.180000       12.0110           0
     17965 MEMB     127      DOPC     H14R     HAL2     0.900000E-01   1.00800           0
     17966 MEMB     127      DOPC     H14S     HAL2     0.900000E-01   1.00800           0
     17967 MEMB     127      DOPC     C215     CTL2    -0.180000       12.0110           0
     17968 MEMB     127      DOPC     H15R     HAL2     0.900000E-01   1.00800           0
     17969 MEMB     127      DOPC     H15S     HAL2     0.900000E-01   1.00800           0
     17970 MEMB     127      DOPC     C216     CTL2    -0.180000       12.0110           0
     17971 MEMB     127      DOPC     H16R     HAL2     0.900000E-01   1.00800           0
     17972 MEMB     127      DOPC     H16S     HAL2     0.900000E-01   1.00800           0
     17973 MEMB     127      DOPC     C217     CTL2    -0.180000       12.0110           0
     17974 MEMB     127      DOPC     H17R     HAL2     0.900000E-01   1.00800           0
     17975 MEMB     127      DOPC     H17S     HAL2     0.900000E-01   1.00800           0
     17976 MEMB     127      DOPC     C218     CTL3    -0.270000       12.0110           0
     17977 MEMB     127      DOPC     H18R     HAL3     0.900000E-01   1.00800           0
     17978 MEMB     127      DOPC     H18S     HAL3     0.900000E-01   1.00800           0
     17979 MEMB     127      DOPC     H18T     HAL3     0.900000E-01   1.00800           0
     17980 MEMB     127      DOPC     C33      CTL2    -0.180000       12.0110           0
     17981 MEMB     127      DOPC     H3X      HAL2     0.900000E-01   1.00800           0
     17982 MEMB     127      DOPC     H3Y      HAL2     0.900000E-01   1.00800           0
     17983 MEMB     127      DOPC     C34      CTL2    -0.180000       12.0110           0
     17984 MEMB     127      DOPC     H4X      HAL2     0.900000E-01   1.00800           0
     17985 MEMB     127      DOPC     H4Y      HAL2     0.900000E-01   1.00800           0
     17986 MEMB     127      DOPC     C35      CTL2    -0.180000       12.0110           0
     17987 MEMB     127      DOPC     H5X      HAL2     0.900000E-01   1.00800           0
     17988 MEMB     127      DOPC     H5Y      HAL2     0.900000E-01   1.00800           0
     17989 MEMB     127      DOPC     C36      CTL2    -0.180000       12.0110           0
     17990 MEMB     127      DOPC     H6X      HAL2     0.900000E-01   1.00800           0
     17991 MEMB     127      DOPC     H6Y      HAL2     0.900000E-01   1.00800           0
     17992 MEMB     127      DOPC     C37      CTL2    -0.180000       12.0110           0
     17993 MEMB     127      DOPC     H7X      HAL2     0.900000E-01   1.00800           0
     17994 MEMB     127      DOPC     H7Y      HAL2     0.900000E-01   1.00800           0
     17995 MEMB     127      DOPC     C38      CTL2    -0.180000       12.0110           0
     17996 MEMB     127      DOPC     H8X      HAL2     0.900000E-01   1.00800           0
     17997 MEMB     127      DOPC     H8Y      HAL2     0.900000E-01   1.00800           0
     17998 MEMB     127      DOPC     C39      CEL1    -0.150000       12.0110           0
     17999 MEMB     127      DOPC     H9X      HEL1     0.150000       1.00800           0
     18000 MEMB     127      DOPC     C310     CEL1    -0.150000       12.0110           0
     18001 MEMB     127      DOPC     H10X     HEL1     0.150000       1.00800           0
     18002 MEMB     127      DOPC     C311     CTL2    -0.180000       12.0110           0
     18003 MEMB     127      DOPC     H11X     HAL2     0.900000E-01   1.00800           0
     18004 MEMB     127      DOPC     H11Y     HAL2     0.900000E-01   1.00800           0
     18005 MEMB     127      DOPC     C312     CTL2    -0.180000       12.0110           0
     18006 MEMB     127      DOPC     H12X     HAL2     0.900000E-01   1.00800           0
     18007 MEMB     127      DOPC     H12Y     HAL2     0.900000E-01   1.00800           0
     18008 MEMB     127      DOPC     C313     CTL2    -0.180000       12.0110           0
     18009 MEMB     127      DOPC     H13X     HAL2     0.900000E-01   1.00800           0
     18010 MEMB     127      DOPC     H13Y     HAL2     0.900000E-01   1.00800           0
     18011 MEMB     127      DOPC     C314     CTL2    -0.180000       12.0110           0
     18012 MEMB     127      DOPC     H14X     HAL2     0.900000E-01   1.00800           0
     18013 MEMB     127      DOPC     H14Y     HAL2     0.900000E-01   1.00800           0
     18014 MEMB     127      DOPC     C315     CTL2    -0.180000       12.0110           0
     18015 MEMB     127      DOPC     H15X     HAL2     0.900000E-01   1.00800           0
     18016 MEMB     127      DOPC     H15Y     HAL2     0.900000E-01   1.00800           0
     18017 MEMB     127      DOPC     C316     CTL2    -0.180000       12.0110           0
     18018 MEMB     127      DOPC     H16X     HAL2     0.900000E-01   1.00800           0
     18019 MEMB     127      DOPC     H16Y     HAL2     0.900000E-01   1.00800           0
     18020 MEMB     127      DOPC     C317     CTL2    -0.180000       12.0110           0
     18021 MEMB     127      DOPC     H17X     HAL2     0.900000E-01   1.00800           0
     18022 MEMB     127      DOPC     H17Y     HAL2     0.900000E-01   1.00800           0
     18023 MEMB     127      DOPC     C318     CTL3    -0.270000       12.0110           0
     18024 MEMB     127      DOPC     H18X     HAL3     0.900000E-01   1.00800           0
     18025 MEMB     127      DOPC     H18Y     HAL3     0.900000E-01   1.00800           0
     18026 MEMB     127      DOPC     H18Z     HAL3     0.900000E-01   1.00800           0
     18027 MEMB     128      DOPC     N        NTL     -0.600000       14.0070           0
     18028 MEMB     128      DOPC     C12      CTL2    -0.100000       12.0110           0
     18029 MEMB     128      DOPC     H12A     HL       0.250000       1.00800           0
     18030 MEMB     128      DOPC     H12B     HL       0.250000       1.00800           0
     18031 MEMB     128      DOPC     C13      CTL5    -0.350000       12.0110           0
     18032 MEMB     128      DOPC     H13A     HL       0.250000       1.00800           0
     18033 MEMB     128      DOPC     H13B     HL       0.250000       1.00800           0
     18034 MEMB     128      DOPC     H13C     HL       0.250000       1.00800           0
     18035 MEMB     128      DOPC     C14      CTL5    -0.350000       12.0110           0
     18036 MEMB     128      DOPC     H14A     HL       0.250000       1.00800           0
     18037 MEMB     128      DOPC     H14B     HL       0.250000       1.00800           0
     18038 MEMB     128      DOPC     H14C     HL       0.250000       1.00800           0
     18039 MEMB     128      DOPC     C15      CTL5    -0.350000       12.0110           0
     18040 MEMB     128      DOPC     H15A     HL       0.250000       1.00800           0
     18041 MEMB     128      DOPC     H15B     HL       0.250000       1.00800           0
     18042 MEMB     128      DOPC     H15C     HL       0.250000       1.00800           0
     18043 MEMB     128      DOPC     C11      CTL2    -0.800000E-01   12.0110           0
     18044 MEMB     128      DOPC     H11A     HAL2     0.900000E-01   1.00800           0
     18045 MEMB     128      DOPC     H11B     HAL2     0.900000E-01   1.00800           0
     18046 MEMB     128      DOPC     P        PL        1.50000       30.9740           0
     18047 MEMB     128      DOPC     O13      O2L     -0.780000       15.9994           0
     18048 MEMB     128      DOPC     O14      O2L     -0.780000       15.9994           0
     18049 MEMB     128      DOPC     O12      OSLP    -0.570000       15.9994           0
     18050 MEMB     128      DOPC     O11      OSLP    -0.570000       15.9994           0
     18051 MEMB     128      DOPC     C1       CTL2    -0.800000E-01   12.0110           0
     18052 MEMB     128      DOPC     HA       HAL2     0.900000E-01   1.00800           0
     18053 MEMB     128      DOPC     HB       HAL2     0.900000E-01   1.00800           0
     18054 MEMB     128      DOPC     C2       CTL1     0.170000       12.0110           0
     18055 MEMB     128      DOPC     HS       HAL1     0.900000E-01   1.00800           0
     18056 MEMB     128      DOPC     O21      OSL     -0.490000       15.9994           0
     18057 MEMB     128      DOPC     C21      CL       0.900000       12.0110           0
     18058 MEMB     128      DOPC     O22      OBL     -0.630000       15.9994           0
     18059 MEMB     128      DOPC     C22      CTL2    -0.220000       12.0110           0
     18060 MEMB     128      DOPC     H2R      HAL2     0.900000E-01   1.00800           0
     18061 MEMB     128      DOPC     H2S      HAL2     0.900000E-01   1.00800           0
     18062 MEMB     128      DOPC     C3       CTL2     0.800000E-01   12.0110           0
     18063 MEMB     128      DOPC     HX       HAL2     0.900000E-01   1.00800           0
     18064 MEMB     128      DOPC     HY       HAL2     0.900000E-01   1.00800           0
     18065 MEMB     128      DOPC     O31      OSL     -0.490000       15.9994           0
     18066 MEMB     128      DOPC     C31      CL       0.900000       12.0110           0
     18067 MEMB     128      DOPC     O32      OBL     -0.630000       15.9994           0
     18068 MEMB     128      DOPC     C32      CTL2    -0.220000       12.0110           0
     18069 MEMB     128      DOPC     H2X      HAL2     0.900000E-01   1.00800           0
     18070 MEMB     128      DOPC     H2Y      HAL2     0.900000E-01   1.00800           0
     18071 MEMB     128      DOPC     C23      CTL2    -0.180000       12.0110           0
     18072 MEMB     128      DOPC     H3R      HAL2     0.900000E-01   1.00800           0
     18073 MEMB     128      DOPC     H3S      HAL2     0.900000E-01   1.00800           0
     18074 MEMB     128      DOPC     C24      CTL2    -0.180000       12.0110           0
     18075 MEMB     128      DOPC     H4R      HAL2     0.900000E-01   1.00800           0
     18076 MEMB     128      DOPC     H4S      HAL2     0.900000E-01   1.00800           0
     18077 MEMB     128      DOPC     C25      CTL2    -0.180000       12.0110           0
     18078 MEMB     128      DOPC     H5R      HAL2     0.900000E-01   1.00800           0
     18079 MEMB     128      DOPC     H5S      HAL2     0.900000E-01   1.00800           0
     18080 MEMB     128      DOPC     C26      CTL2    -0.180000       12.0110           0
     18081 MEMB     128      DOPC     H6R      HAL2     0.900000E-01   1.00800           0
     18082 MEMB     128      DOPC     H6S      HAL2     0.900000E-01   1.00800           0
     18083 MEMB     128      DOPC     C27      CTL2    -0.180000       12.0110           0
     18084 MEMB     128      DOPC     H7R      HAL2     0.900000E-01   1.00800           0
     18085 MEMB     128      DOPC     H7S      HAL2     0.900000E-01   1.00800           0
     18086 MEMB     128      DOPC     C28      CTL2    -0.180000       12.0110           0
     18087 MEMB     128      DOPC     H8R      HAL2     0.900000E-01   1.00800           0
     18088 MEMB     128      DOPC     H8S      HAL2     0.900000E-01   1.00800           0
     18089 MEMB     128      DOPC     C29      CEL1    -0.150000       12.0110           0
     18090 MEMB     128      DOPC     H9R      HEL1     0.150000       1.00800           0
     18091 MEMB     128      DOPC     C210     CEL1    -0.150000       12.0110           0
     18092 MEMB     128      DOPC     H10R     HEL1     0.150000       1.00800           0
     18093 MEMB     128      DOPC     C211     CTL2    -0.180000       12.0110           0
     18094 MEMB     128      DOPC     H11R     HAL2     0.900000E-01   1.00800           0
     18095 MEMB     128      DOPC     H11S     HAL2     0.900000E-01   1.00800           0
     18096 MEMB     128      DOPC     C212     CTL2    -0.180000       12.0110           0
     18097 MEMB     128      DOPC     H12R     HAL2     0.900000E-01   1.00800           0
     18098 MEMB     128      DOPC     H12S     HAL2     0.900000E-01   1.00800           0
     18099 MEMB     128      DOPC     C213     CTL2    -0.180000       12.0110           0
     18100 MEMB     128      DOPC     H13R     HAL2     0.900000E-01   1.00800           0
     18101 MEMB     128      DOPC     H13S     HAL2     0.900000E-01   1.00800           0
     18102 MEMB     128      DOPC     C214     CTL2    -0.180000       12.0110           0
     18103 MEMB     128      DOPC     H14R     HAL2     0.900000E-01   1.00800           0
     18104 MEMB     128      DOPC     H14S     HAL2     0.900000E-01   1.00800           0
     18105 MEMB     128      DOPC     C215     CTL2    -0.180000       12.0110           0
     18106 MEMB     128      DOPC     H15R     HAL2     0.900000E-01   1.00800           0
     18107 MEMB     128      DOPC     H15S     HAL2     0.900000E-01   1.00800           0
     18108 MEMB     128      DOPC     C216     CTL2    -0.180000       12.0110           0
     18109 MEMB     128      DOPC     H16R     HAL2     0.900000E-01   1.00800           0
     18110 MEMB     128      DOPC     H16S     HAL2     0.900000E-01   1.00800           0
     18111 MEMB     128      DOPC     C217     CTL2    -0.180000       12.0110           0
     18112 MEMB     128      DOPC     H17R     HAL2     0.900000E-01   1.00800           0
     18113 MEMB     128      DOPC     H17S     HAL2     0.900000E-01   1.00800           0
     18114 MEMB     128      DOPC     C218     CTL3    -0.270000       12.0110           0
     18115 MEMB     128      DOPC     H18R     HAL3     0.900000E-01   1.00800           0
     18116 MEMB     128      DOPC     H18S     HAL3     0.900000E-01   1.00800           0
     18117 MEMB     128      DOPC     H18T     HAL3     0.900000E-01   1.00800           0
     18118 MEMB     128      DOPC     C33      CTL2    -0.180000       12.0110           0
     18119 MEMB     128      DOPC     H3X      HAL2     0.900000E-01   1.00800           0
     18120 MEMB     128      DOPC     H3Y      HAL2     0.900000E-01   1.00800           0
     18121 MEMB     128      DOPC     C34      CTL2    -0.180000       12.0110           0
     18122 MEMB     128      DOPC     H4X      HAL2     0.900000E-01   1.00800           0
     18123 MEMB     128      DOPC     H4Y      HAL2     0.900000E-01   1.00800           0
     18124 MEMB     128      DOPC     C35      CTL2    -0.180000       12.0110           0
     18125 MEMB     128      DOPC     H5X      HAL2     0.900000E-01   1.00800           0
     18126 MEMB     128      DOPC     H5Y      HAL2     0.900000E-01   1.00800           0
     18127 MEMB     128      DOPC     C36      CTL2    -0.180000       12.0110           0
     18128 MEMB     128      DOPC     H6X      HAL2     0.900000E-01   1.00800           0
     18129 MEMB     128      DOPC     H6Y      HAL2     0.900000E-01   1.00800           0
     18130 MEMB     128      DOPC     C37      CTL2    -0.180000       12.0110           0
     18131 MEMB     128      DOPC     H7X      HAL2     0.900000E-01   1.00800           0
     18132 MEMB     128      DOPC     H7Y      HAL2     0.900000E-01   1.00800           0
     18133 MEMB     128      DOPC     C38      CTL2    -0.180000       12.0110           0
     18134 MEMB     128      DOPC     H8X      HAL2     0.900000E-01   1.00800           0
     18135 MEMB     128      DOPC     H8Y      HAL2     0.900000E-01   1.00800           0
     18136 MEMB     128      DOPC     C39      CEL1    -0.150000       12.0110           0
     18137 MEMB     128      DOPC     H9X      HEL1     0.150000       1.00800           0
     18138 MEMB     128      DOPC     C310     CEL1    -0.150000       12.0110           0
     18139 MEMB     128      DOPC     H10X     HEL1     0.150000       1.00800           0
     18140 MEMB     128      DOPC     C311     CTL2    -0.180000       12.0110           0
     18141 MEMB     128      DOPC     H11X     HAL2     0.900000E-01   1.00800           0
     18142 MEMB     128      DOPC     H11Y     HAL2     0.900000E-01   1.00800           0
     18143 MEMB     128      DOPC     C312     CTL2    -0.180000       12.0110           0
     18144 MEMB     128      DOPC     H12X     HAL2     0.900000E-01   1.00800           0
     18145 MEMB     128      DOPC     H12Y     HAL2     0.900000E-01   1.00800           0
     18146 MEMB     128      DOPC     C313     CTL2    -0.180000       12.0110           0
     18147 MEMB     128      DOPC     H13X     HAL2     0.900000E-01   1.00800           0
     18148 MEMB     128      DOPC     H13Y     HAL2     0.900000E-01   1.00800           0
     18149 MEMB     128      DOPC     C314     CTL2    -0.180000       12.0110           0
     18150 MEMB     128      DOPC     H14X     HAL2     0.900000E-01   1.00800           0
     18151 MEMB     128      DOPC     H14Y     HAL2     0.900000E-01   1.00800           0
     18152 MEMB     128      DOPC     C315     CTL2    -0.180000       12.0110           0
     18153 MEMB     128      DOPC     H15X     HAL2     0.900000E-01   1.00800           0
     18154 MEMB     128      DOPC     H15Y     HAL2     0.900000E-01   1.00800           0
     18155 MEMB     128      DOPC     C316     CTL2    -0.180000       12.0110           0
     18156 MEMB     128      DOPC     H16X     HAL2     0.900000E-01   1.00800           0
     18157 MEMB     128      DOPC     H16Y     HAL2     0.900000E-01   1.00800           0
     18158 MEMB     128      DOPC     C317     CTL2    -0.180000       12.0110           0
     18159 MEMB     128      DOPC     H17X     HAL2     0.900000E-01   1.00800           0
     18160 MEMB     128      DOPC     H17Y     HAL2     0.900000E-01   1.00800           0
     18161 MEMB     128      DOPC     C318     CTL3    -0.270000       12.0110           0
     18162 MEMB     128      DOPC     H18X     HAL3     0.900000E-01   1.00800           0
     18163 MEMB     128      DOPC     H18Y     HAL3     0.900000E-01   1.00800           0
     18164 MEMB     128      DOPC     H18Z     HAL3     0.900000E-01   1.00800           0
     18165 MEMB     129      DOPC     N        NTL     -0.600000       14.0070           0
     18166 MEMB     129      DOPC     C12      CTL2    -0.100000       12.0110           0
     18167 MEMB     129      DOPC     H12A     HL       0.250000       1.00800           0
     18168 MEMB     129      DOPC     H12B     HL       0.250000       1.00800           0
     18169 MEMB     129      DOPC     C13      CTL5    -0.350000       12.0110           0
     18170 MEMB     129      DOPC     H13A     HL       0.250000       1.00800           0
     18171 MEMB     129      DOPC     H13B     HL       0.250000       1.00800           0
     18172 MEMB     129      DOPC     H13C     HL       0.250000       1.00800           0
     18173 MEMB     129      DOPC     C14      CTL5    -0.350000       12.0110           0
     18174 MEMB     129      DOPC     H14A     HL       0.250000       1.00800           0
     18175 MEMB     129      DOPC     H14B     HL       0.250000       1.00800           0
     18176 MEMB     129      DOPC     H14C     HL       0.250000       1.00800           0
     18177 MEMB     129      DOPC     C15      CTL5    -0.350000       12.0110           0
     18178 MEMB     129      DOPC     H15A     HL       0.250000       1.00800           0
     18179 MEMB     129      DOPC     H15B     HL       0.250000       1.00800           0
     18180 MEMB     129      DOPC     H15C     HL       0.250000       1.00800           0
     18181 MEMB     129      DOPC     C11      CTL2    -0.800000E-01   12.0110           0
     18182 MEMB     129      DOPC     H11A     HAL2     0.900000E-01   1.00800           0
     18183 MEMB     129      DOPC     H11B     HAL2     0.900000E-01   1.00800           0
     18184 MEMB     129      DOPC     P        PL        1.50000       30.9740           0
     18185 MEMB     129      DOPC     O13      O2L     -0.780000       15.9994           0
     18186 MEMB     129      DOPC     O14      O2L     -0.780000       15.9994           0
     18187 MEMB     129      DOPC     O12      OSLP    -0.570000       15.9994           0
     18188 MEMB     129      DOPC     O11      OSLP    -0.570000       15.9994           0
     18189 MEMB     129      DOPC     C1       CTL2    -0.800000E-01   12.0110           0
     18190 MEMB     129      DOPC     HA       HAL2     0.900000E-01   1.00800           0
     18191 MEMB     129      DOPC     HB       HAL2     0.900000E-01   1.00800           0
     18192 MEMB     129      DOPC     C2       CTL1     0.170000       12.0110           0
     18193 MEMB     129      DOPC     HS       HAL1     0.900000E-01   1.00800           0
     18194 MEMB     129      DOPC     O21      OSL     -0.490000       15.9994           0
     18195 MEMB     129      DOPC     C21      CL       0.900000       12.0110           0
     18196 MEMB     129      DOPC     O22      OBL     -0.630000       15.9994           0
     18197 MEMB     129      DOPC     C22      CTL2    -0.220000       12.0110           0
     18198 MEMB     129      DOPC     H2R      HAL2     0.900000E-01   1.00800           0
     18199 MEMB     129      DOPC     H2S      HAL2     0.900000E-01   1.00800           0
     18200 MEMB     129      DOPC     C3       CTL2     0.800000E-01   12.0110           0
     18201 MEMB     129      DOPC     HX       HAL2     0.900000E-01   1.00800           0
     18202 MEMB     129      DOPC     HY       HAL2     0.900000E-01   1.00800           0
     18203 MEMB     129      DOPC     O31      OSL     -0.490000       15.9994           0
     18204 MEMB     129      DOPC     C31      CL       0.900000       12.0110           0
     18205 MEMB     129      DOPC     O32      OBL     -0.630000       15.9994           0
     18206 MEMB     129      DOPC     C32      CTL2    -0.220000       12.0110           0
     18207 MEMB     129      DOPC     H2X      HAL2     0.900000E-01   1.00800           0
     18208 MEMB     129      DOPC     H2Y      HAL2     0.900000E-01   1.00800           0
     18209 MEMB     129      DOPC     C23      CTL2    -0.180000       12.0110           0
     18210 MEMB     129      DOPC     H3R      HAL2     0.900000E-01   1.00800           0
     18211 MEMB     129      DOPC     H3S      HAL2     0.900000E-01   1.00800           0
     18212 MEMB     129      DOPC     C24      CTL2    -0.180000       12.0110           0
     18213 MEMB     129      DOPC     H4R      HAL2     0.900000E-01   1.00800           0
     18214 MEMB     129      DOPC     H4S      HAL2     0.900000E-01   1.00800           0
     18215 MEMB     129      DOPC     C25      CTL2    -0.180000       12.0110           0
     18216 MEMB     129      DOPC     H5R      HAL2     0.900000E-01   1.00800           0
     18217 MEMB     129      DOPC     H5S      HAL2     0.900000E-01   1.00800           0
     18218 MEMB     129      DOPC     C26      CTL2    -0.180000       12.0110           0
     18219 MEMB     129      DOPC     H6R      HAL2     0.900000E-01   1.00800           0
     18220 MEMB     129      DOPC     H6S      HAL2     0.900000E-01   1.00800           0
     18221 MEMB     129      DOPC     C27      CTL2    -0.180000       12.0110           0
     18222 MEMB     129      DOPC     H7R      HAL2     0.900000E-01   1.00800           0
     18223 MEMB     129      DOPC     H7S      HAL2     0.900000E-01   1.00800           0
     18224 MEMB     129      DOPC     C28      CTL2    -0.180000       12.0110           0
     18225 MEMB     129      DOPC     H8R      HAL2     0.900000E-01   1.00800           0
     18226 MEMB     129      DOPC     H8S      HAL2     0.900000E-01   1.00800           0
     18227 MEMB     129      DOPC     C29      CEL1    -0.150000       12.0110           0
     18228 MEMB     129      DOPC     H9R      HEL1     0.150000       1.00800           0
     18229 MEMB     129      DOPC     C210     CEL1    -0.150000       12.0110           0
     18230 MEMB     129      DOPC     H10R     HEL1     0.150000       1.00800           0
     18231 MEMB     129      DOPC     C211     CTL2    -0.180000       12.0110           0
     18232 MEMB     129      DOPC     H11R     HAL2     0.900000E-01   1.00800           0
     18233 MEMB     129      DOPC     H11S     HAL2     0.900000E-01   1.00800           0
     18234 MEMB     129      DOPC     C212     CTL2    -0.180000       12.0110           0
     18235 MEMB     129      DOPC     H12R     HAL2     0.900000E-01   1.00800           0
     18236 MEMB     129      DOPC     H12S     HAL2     0.900000E-01   1.00800           0
     18237 MEMB     129      DOPC     C213     CTL2    -0.180000       12.0110           0
     18238 MEMB     129      DOPC     H13R     HAL2     0.900000E-01   1.00800           0
     18239 MEMB     129      DOPC     H13S     HAL2     0.900000E-01   1.00800           0
     18240 MEMB     129      DOPC     C214     CTL2    -0.180000       12.0110           0
     18241 MEMB     129      DOPC     H14R     HAL2     0.900000E-01   1.00800           0
     18242 MEMB     129      DOPC     H14S     HAL2     0.900000E-01   1.00800           0
     18243 MEMB     129      DOPC     C215     CTL2    -0.180000       12.0110           0
     18244 MEMB     129      DOPC     H15R     HAL2     0.900000E-01   1.00800           0
     18245 MEMB     129      DOPC     H15S     HAL2     0.900000E-01   1.00800           0
     18246 MEMB     129      DOPC     C216     CTL2    -0.180000       12.0110           0
     18247 MEMB     129      DOPC     H16R     HAL2     0.900000E-01   1.00800           0
     18248 MEMB     129      DOPC     H16S     HAL2     0.900000E-01   1.00800           0
     18249 MEMB     129      DOPC     C217     CTL2    -0.180000       12.0110           0
     18250 MEMB     129      DOPC     H17R     HAL2     0.900000E-01   1.00800           0
     18251 MEMB     129      DOPC     H17S     HAL2     0.900000E-01   1.00800           0
     18252 MEMB     129      DOPC     C218     CTL3    -0.270000       12.0110           0
     18253 MEMB     129      DOPC     H18R     HAL3     0.900000E-01   1.00800           0
     18254 MEMB     129      DOPC     H18S     HAL3     0.900000E-01   1.00800           0
     18255 MEMB     129      DOPC     H18T     HAL3     0.900000E-01   1.00800           0
     18256 MEMB     129      DOPC     C33      CTL2    -0.180000       12.0110           0
     18257 MEMB     129      DOPC     H3X      HAL2     0.900000E-01   1.00800           0
     18258 MEMB     129      DOPC     H3Y      HAL2     0.900000E-01   1.00800           0
     18259 MEMB     129      DOPC     C34      CTL2    -0.180000       12.0110           0
     18260 MEMB     129      DOPC     H4X      HAL2     0.900000E-01   1.00800           0
     18261 MEMB     129      DOPC     H4Y      HAL2     0.900000E-01   1.00800           0
     18262 MEMB     129      DOPC     C35      CTL2    -0.180000       12.0110           0
     18263 MEMB     129      DOPC     H5X      HAL2     0.900000E-01   1.00800           0
     18264 MEMB     129      DOPC     H5Y      HAL2     0.900000E-01   1.00800           0
     18265 MEMB     129      DOPC     C36      CTL2    -0.180000       12.0110           0
     18266 MEMB     129      DOPC     H6X      HAL2     0.900000E-01   1.00800           0
     18267 MEMB     129      DOPC     H6Y      HAL2     0.900000E-01   1.00800           0
     18268 MEMB     129      DOPC     C37      CTL2    -0.180000       12.0110           0
     18269 MEMB     129      DOPC     H7X      HAL2     0.900000E-01   1.00800           0
     18270 MEMB     129      DOPC     H7Y      HAL2     0.900000E-01   1.00800           0
     18271 MEMB     129      DOPC     C38      CTL2    -0.180000       12.0110           0
     18272 MEMB     129      DOPC     H8X      HAL2     0.900000E-01   1.00800           0
     18273 MEMB     129      DOPC     H8Y      HAL2     0.900000E-01   1.00800           0
     18274 MEMB     129      DOPC     C39      CEL1    -0.150000       12.0110           0
     18275 MEMB     129      DOPC     H9X      HEL1     0.150000       1.00800           0
     18276 MEMB     129      DOPC     C310     CEL1    -0.150000       12.0110           0
     18277 MEMB     129      DOPC     H10X     HEL1     0.150000       1.00800           0
     18278 MEMB     129      DOPC     C311     CTL2    -0.180000       12.0110           0
     18279 MEMB     129      DOPC     H11X     HAL2     0.900000E-01   1.00800           0
     18280 MEMB     129      DOPC     H11Y     HAL2     0.900000E-01   1.00800           0
     18281 MEMB     129      DOPC     C312     CTL2    -0.180000       12.0110           0
     18282 MEMB     129      DOPC     H12X     HAL2     0.900000E-01   1.00800           0
     18283 MEMB     129      DOPC     H12Y     HAL2     0.900000E-01   1.00800           0
     18284 MEMB     129      DOPC     C313     CTL2    -0.180000       12.0110           0
     18285 MEMB     129      DOPC     H13X     HAL2     0.900000E-01   1.00800           0
     18286 MEMB     129      DOPC     H13Y     HAL2     0.900000E-01   1.00800           0
     18287 MEMB     129      DOPC     C314     CTL2    -0.180000       12.0110           0
     18288 MEMB     129      DOPC     H14X     HAL2     0.900000E-01   1.00800           0
     18289 MEMB     129      DOPC     H14Y     HAL2     0.900000E-01   1.00800           0
     18290 MEMB     129      DOPC     C315     CTL2    -0.180000       12.0110           0
     18291 MEMB     129      DOPC     H15X     HAL2     0.900000E-01   1.00800           0
     18292 MEMB     129      DOPC     H15Y     HAL2     0.900000E-01   1.00800           0
     18293 MEMB     129      DOPC     C316     CTL2    -0.180000       12.0110           0
     18294 MEMB     129      DOPC     H16X     HAL2     0.900000E-01   1.00800           0
     18295 MEMB     129      DOPC     H16Y     HAL2     0.900000E-01   1.00800           0
     18296 MEMB     129      DOPC     C317     CTL2    -0.180000       12.0110           0
     18297 MEMB     129      DOPC     H17X     HAL2     0.900000E-01   1.00800           0
     18298 MEMB     129      DOPC     H17Y     HAL2     0.900000E-01   1.00800           0
     18299 MEMB     129      DOPC     C318     CTL3    -0.270000       12.0110           0
     18300 MEMB     129      DOPC     H18X     HAL3     0.900000E-01   1.00800           0
     18301 MEMB     129      DOPC     H18Y     HAL3     0.900000E-01   1.00800           0
     18302 MEMB     129      DOPC     H18Z     HAL3     0.900000E-01   1.00800           0
     18303 MEMB     130      DOPC     N        NTL     -0.600000       14.0070           0
     18304 MEMB     130      DOPC     C12      CTL2    -0.100000       12.0110           0
     18305 MEMB     130      DOPC     H12A     HL       0.250000       1.00800           0
     18306 MEMB     130      DOPC     H12B     HL       0.250000       1.00800           0
     18307 MEMB     130      DOPC     C13      CTL5    -0.350000       12.0110           0
     18308 MEMB     130      DOPC     H13A     HL       0.250000       1.00800           0
     18309 MEMB     130      DOPC     H13B     HL       0.250000       1.00800           0
     18310 MEMB     130      DOPC     H13C     HL       0.250000       1.00800           0
     18311 MEMB     130      DOPC     C14      CTL5    -0.350000       12.0110           0
     18312 MEMB     130      DOPC     H14A     HL       0.250000       1.00800           0
     18313 MEMB     130      DOPC     H14B     HL       0.250000       1.00800           0
     18314 MEMB     130      DOPC     H14C     HL       0.250000       1.00800           0
     18315 MEMB     130      DOPC     C15      CTL5    -0.350000       12.0110           0
     18316 MEMB     130      DOPC     H15A     HL       0.250000       1.00800           0
     18317 MEMB     130      DOPC     H15B     HL       0.250000       1.00800           0
     18318 MEMB     130      DOPC     H15C     HL       0.250000       1.00800           0
     18319 MEMB     130      DOPC     C11      CTL2    -0.800000E-01   12.0110           0
     18320 MEMB     130      DOPC     H11A     HAL2     0.900000E-01   1.00800           0
     18321 MEMB     130      DOPC     H11B     HAL2     0.900000E-01   1.00800           0
     18322 MEMB     130      DOPC     P        PL        1.50000       30.9740           0
     18323 MEMB     130      DOPC     O13      O2L     -0.780000       15.9994           0
     18324 MEMB     130      DOPC     O14      O2L     -0.780000       15.9994           0
     18325 MEMB     130      DOPC     O12      OSLP    -0.570000       15.9994           0
     18326 MEMB     130      DOPC     O11      OSLP    -0.570000       15.9994           0
     18327 MEMB     130      DOPC     C1       CTL2    -0.800000E-01   12.0110           0
     18328 MEMB     130      DOPC     HA       HAL2     0.900000E-01   1.00800           0
     18329 MEMB     130      DOPC     HB       HAL2     0.900000E-01   1.00800           0
     18330 MEMB     130      DOPC     C2       CTL1     0.170000       12.0110           0
     18331 MEMB     130      DOPC     HS       HAL1     0.900000E-01   1.00800           0
     18332 MEMB     130      DOPC     O21      OSL     -0.490000       15.9994           0
     18333 MEMB     130      DOPC     C21      CL       0.900000       12.0110           0
     18334 MEMB     130      DOPC     O22      OBL     -0.630000       15.9994           0
     18335 MEMB     130      DOPC     C22      CTL2    -0.220000       12.0110           0
     18336 MEMB     130      DOPC     H2R      HAL2     0.900000E-01   1.00800           0
     18337 MEMB     130      DOPC     H2S      HAL2     0.900000E-01   1.00800           0
     18338 MEMB     130      DOPC     C3       CTL2     0.800000E-01   12.0110           0
     18339 MEMB     130      DOPC     HX       HAL2     0.900000E-01   1.00800           0
     18340 MEMB     130      DOPC     HY       HAL2     0.900000E-01   1.00800           0
     18341 MEMB     130      DOPC     O31      OSL     -0.490000       15.9994           0
     18342 MEMB     130      DOPC     C31      CL       0.900000       12.0110           0
     18343 MEMB     130      DOPC     O32      OBL     -0.630000       15.9994           0
     18344 MEMB     130      DOPC     C32      CTL2    -0.220000       12.0110           0
     18345 MEMB     130      DOPC     H2X      HAL2     0.900000E-01   1.00800           0
     18346 MEMB     130      DOPC     H2Y      HAL2     0.900000E-01   1.00800           0
     18347 MEMB     130      DOPC     C23      CTL2    -0.180000       12.0110           0
     18348 MEMB     130      DOPC     H3R      HAL2     0.900000E-01   1.00800           0
     18349 MEMB     130      DOPC     H3S      HAL2     0.900000E-01   1.00800           0
     18350 MEMB     130      DOPC     C24      CTL2    -0.180000       12.0110           0
     18351 MEMB     130      DOPC     H4R      HAL2     0.900000E-01   1.00800           0
     18352 MEMB     130      DOPC     H4S      HAL2     0.900000E-01   1.00800           0
     18353 MEMB     130      DOPC     C25      CTL2    -0.180000       12.0110           0
     18354 MEMB     130      DOPC     H5R      HAL2     0.900000E-01   1.00800           0
     18355 MEMB     130      DOPC     H5S      HAL2     0.900000E-01   1.00800           0
     18356 MEMB     130      DOPC     C26      CTL2    -0.180000       12.0110           0
     18357 MEMB     130      DOPC     H6R      HAL2     0.900000E-01   1.00800           0
     18358 MEMB     130      DOPC     H6S      HAL2     0.900000E-01   1.00800           0
     18359 MEMB     130      DOPC     C27      CTL2    -0.180000       12.0110           0
     18360 MEMB     130      DOPC     H7R      HAL2     0.900000E-01   1.00800           0
     18361 MEMB     130      DOPC     H7S      HAL2     0.900000E-01   1.00800           0
     18362 MEMB     130      DOPC     C28      CTL2    -0.180000       12.0110           0
     18363 MEMB     130      DOPC     H8R      HAL2     0.900000E-01   1.00800           0
     18364 MEMB     130      DOPC     H8S      HAL2     0.900000E-01   1.00800           0
     18365 MEMB     130      DOPC     C29      CEL1    -0.150000       12.0110           0
     18366 MEMB     130      DOPC     H9R      HEL1     0.150000       1.00800           0
     18367 MEMB     130      DOPC     C210     CEL1    -0.150000       12.0110           0
     18368 MEMB     130      DOPC     H10R     HEL1     0.150000       1.00800           0
     18369 MEMB     130      DOPC     C211     CTL2    -0.180000       12.0110           0
     18370 MEMB     130      DOPC     H11R     HAL2     0.900000E-01   1.00800           0
     18371 MEMB     130      DOPC     H11S     HAL2     0.900000E-01   1.00800           0
     18372 MEMB     130      DOPC     C212     CTL2    -0.180000       12.0110           0
     18373 MEMB     130      DOPC     H12R     HAL2     0.900000E-01   1.00800           0
     18374 MEMB     130      DOPC     H12S     HAL2     0.900000E-01   1.00800           0
     18375 MEMB     130      DOPC     C213     CTL2    -0.180000       12.0110           0
     18376 MEMB     130      DOPC     H13R     HAL2     0.900000E-01   1.00800           0
     18377 MEMB     130      DOPC     H13S     HAL2     0.900000E-01   1.00800           0
     18378 MEMB     130      DOPC     C214     CTL2    -0.180000       12.0110           0
     18379 MEMB     130      DOPC     H14R     HAL2     0.900000E-01   1.00800           0
     18380 MEMB     130      DOPC     H14S     HAL2     0.900000E-01   1.00800           0
     18381 MEMB     130      DOPC     C215     CTL2    -0.180000       12.0110           0
     18382 MEMB     130      DOPC     H15R     HAL2     0.900000E-01   1.00800           0
     18383 MEMB     130      DOPC     H15S     HAL2     0.900000E-01   1.00800           0
     18384 MEMB     130      DOPC     C216     CTL2    -0.180000       12.0110           0
     18385 MEMB     130      DOPC     H16R     HAL2     0.900000E-01   1.00800           0
     18386 MEMB     130      DOPC     H16S     HAL2     0.900000E-01   1.00800           0
     18387 MEMB     130      DOPC     C217     CTL2    -0.180000       12.0110           0
     18388 MEMB     130      DOPC     H17R     HAL2     0.900000E-01   1.00800           0
     18389 MEMB     130      DOPC     H17S     HAL2     0.900000E-01   1.00800           0
     18390 MEMB     130      DOPC     C218     CTL3    -0.270000       12.0110           0
     18391 MEMB     130      DOPC     H18R     HAL3     0.900000E-01   1.00800           0
     18392 MEMB     130      DOPC     H18S     HAL3     0.900000E-01   1.00800           0
     18393 MEMB     130      DOPC     H18T     HAL3     0.900000E-01   1.00800           0
     18394 MEMB     130      DOPC     C33      CTL2    -0.180000       12.0110           0
     18395 MEMB     130      DOPC     H3X      HAL2     0.900000E-01   1.00800           0
     18396 MEMB     130      DOPC     H3Y      HAL2     0.900000E-01   1.00800           0
     18397 MEMB     130      DOPC     C34      CTL2    -0.180000       12.0110           0
     18398 MEMB     130      DOPC     H4X      HAL2     0.900000E-01   1.00800           0
     18399 MEMB     130      DOPC     H4Y      HAL2     0.900000E-01   1.00800           0
     18400 MEMB     130      DOPC     C35      CTL2    -0.180000       12.0110           0
     18401 MEMB     130      DOPC     H5X      HAL2     0.900000E-01   1.00800           0
     18402 MEMB     130      DOPC     H5Y      HAL2     0.900000E-01   1.00800           0
     18403 MEMB     130      DOPC     C36      CTL2    -0.180000       12.0110           0
     18404 MEMB     130      DOPC     H6X      HAL2     0.900000E-01   1.00800           0
     18405 MEMB     130      DOPC     H6Y      HAL2     0.900000E-01   1.00800           0
     18406 MEMB     130      DOPC     C37      CTL2    -0.180000       12.0110           0
     18407 MEMB     130      DOPC     H7X      HAL2     0.900000E-01   1.00800           0
     18408 MEMB     130      DOPC     H7Y      HAL2     0.900000E-01   1.00800           0
     18409 MEMB     130      DOPC     C38      CTL2    -0.180000       12.0110           0
     18410 MEMB     130      DOPC     H8X      HAL2     0.900000E-01   1.00800           0
     18411 MEMB     130      DOPC     H8Y      HAL2     0.900000E-01   1.00800           0
     18412 MEMB     130      DOPC     C39      CEL1    -0.150000       12.0110           0
     18413 MEMB     130      DOPC     H9X      HEL1     0.150000       1.00800           0
     18414 MEMB     130      DOPC     C310     CEL1    -0.150000       12.0110           0
     18415 MEMB     130      DOPC     H10X     HEL1     0.150000       1.00800           0
     18416 MEMB     130      DOPC     C311     CTL2    -0.180000       12.0110           0
     18417 MEMB     130      DOPC     H11X     HAL2     0.900000E-01   1.00800           0
     18418 MEMB     130      DOPC     H11Y     HAL2     0.900000E-01   1.00800           0
     18419 MEMB     130      DOPC     C312     CTL2    -0.180000       12.0110           0
     18420 MEMB     130      DOPC     H12X     HAL2     0.900000E-01   1.00800           0
     18421 MEMB     130      DOPC     H12Y     HAL2     0.900000E-01   1.00800           0
     18422 MEMB     130      DOPC     C313     CTL2    -0.180000       12.0110           0
     18423 MEMB     130      DOPC     H13X     HAL2     0.900000E-01   1.00800           0
     18424 MEMB     130      DOPC     H13Y     HAL2     0.900000E-01   1.00800           0
     18425 MEMB     130      DOPC     C314     CTL2    -0.180000       12.0110           0
     18426 MEMB     130      DOPC     H14X     HAL2     0.900000E-01   1.00800           0
     18427 MEMB     130      DOPC     H14Y     HAL2     0.900000E-01   1.00800           0
     18428 MEMB     130      DOPC     C315     CTL2    -0.180000       12.0110           0
     18429 MEMB     130      DOPC     H15X     HAL2     0.900000E-01   1.00800           0
     18430 MEMB     130      DOPC     H15Y     HAL2     0.900000E-01   1.00800           0
     18431 MEMB     130      DOPC     C316     CTL2    -0.180000       12.0110           0
     18432 MEMB     130      DOPC     H16X     HAL2     0.900000E-01   1.00800           0
     18433 MEMB     130      DOPC     H16Y     HAL2     0.900000E-01   1.00800           0
     18434 MEMB     130      DOPC     C317     CTL2    -0.180000       12.0110           0
     18435 MEMB     130      DOPC     H17X     HAL2     0.900000E-01   1.00800           0
     18436 MEMB     130      DOPC     H17Y     HAL2     0.900000E-01   1.00800           0
     18437 MEMB     130      DOPC     C318     CTL3    -0.270000       12.0110           0
     18438 MEMB     130      DOPC     H18X     HAL3     0.900000E-01   1.00800           0
     18439 MEMB     130      DOPC     H18Y     HAL3     0.900000E-01   1.00800           0
     18440 MEMB     130      DOPC     H18Z     HAL3     0.900000E-01   1.00800           0
     18441 MEMB     131      DOPC     N        NTL     -0.600000       14.0070           0
     18442 MEMB     131      DOPC     C12      CTL2    -0.100000       12.0110           0
     18443 MEMB     131      DOPC     H12A     HL       0.250000       1.00800           0
     18444 MEMB     131      DOPC     H12B     HL       0.250000       1.00800           0
     18445 MEMB     131      DOPC     C13      CTL5    -0.350000       12.0110           0
     18446 MEMB     131      DOPC     H13A     HL       0.250000       1.00800           0
     18447 MEMB     131      DOPC     H13B     HL       0.250000       1.00800           0
     18448 MEMB     131      DOPC     H13C     HL       0.250000       1.00800           0
     18449 MEMB     131      DOPC     C14      CTL5    -0.350000       12.0110           0
     18450 MEMB     131      DOPC     H14A     HL       0.250000       1.00800           0
     18451 MEMB     131      DOPC     H14B     HL       0.250000       1.00800           0
     18452 MEMB     131      DOPC     H14C     HL       0.250000       1.00800           0
     18453 MEMB     131      DOPC     C15      CTL5    -0.350000       12.0110           0
     18454 MEMB     131      DOPC     H15A     HL       0.250000       1.00800           0
     18455 MEMB     131      DOPC     H15B     HL       0.250000       1.00800           0
     18456 MEMB     131      DOPC     H15C     HL       0.250000       1.00800           0
     18457 MEMB     131      DOPC     C11      CTL2    -0.800000E-01   12.0110           0
     18458 MEMB     131      DOPC     H11A     HAL2     0.900000E-01   1.00800           0
     18459 MEMB     131      DOPC     H11B     HAL2     0.900000E-01   1.00800           0
     18460 MEMB     131      DOPC     P        PL        1.50000       30.9740           0
     18461 MEMB     131      DOPC     O13      O2L     -0.780000       15.9994           0
     18462 MEMB     131      DOPC     O14      O2L     -0.780000       15.9994           0
     18463 MEMB     131      DOPC     O12      OSLP    -0.570000       15.9994           0
     18464 MEMB     131      DOPC     O11      OSLP    -0.570000       15.9994           0
     18465 MEMB     131      DOPC     C1       CTL2    -0.800000E-01   12.0110           0
     18466 MEMB     131      DOPC     HA       HAL2     0.900000E-01   1.00800           0
     18467 MEMB     131      DOPC     HB       HAL2     0.900000E-01   1.00800           0
     18468 MEMB     131      DOPC     C2       CTL1     0.170000       12.0110           0
     18469 MEMB     131      DOPC     HS       HAL1     0.900000E-01   1.00800           0
     18470 MEMB     131      DOPC     O21      OSL     -0.490000       15.9994           0
     18471 MEMB     131      DOPC     C21      CL       0.900000       12.0110           0
     18472 MEMB     131      DOPC     O22      OBL     -0.630000       15.9994           0
     18473 MEMB     131      DOPC     C22      CTL2    -0.220000       12.0110           0
     18474 MEMB     131      DOPC     H2R      HAL2     0.900000E-01   1.00800           0
     18475 MEMB     131      DOPC     H2S      HAL2     0.900000E-01   1.00800           0
     18476 MEMB     131      DOPC     C3       CTL2     0.800000E-01   12.0110           0
     18477 MEMB     131      DOPC     HX       HAL2     0.900000E-01   1.00800           0
     18478 MEMB     131      DOPC     HY       HAL2     0.900000E-01   1.00800           0
     18479 MEMB     131      DOPC     O31      OSL     -0.490000       15.9994           0
     18480 MEMB     131      DOPC     C31      CL       0.900000       12.0110           0
     18481 MEMB     131      DOPC     O32      OBL     -0.630000       15.9994           0
     18482 MEMB     131      DOPC     C32      CTL2    -0.220000       12.0110           0
     18483 MEMB     131      DOPC     H2X      HAL2     0.900000E-01   1.00800           0
     18484 MEMB     131      DOPC     H2Y      HAL2     0.900000E-01   1.00800           0
     18485 MEMB     131      DOPC     C23      CTL2    -0.180000       12.0110           0
     18486 MEMB     131      DOPC     H3R      HAL2     0.900000E-01   1.00800           0
     18487 MEMB     131      DOPC     H3S      HAL2     0.900000E-01   1.00800           0
     18488 MEMB     131      DOPC     C24      CTL2    -0.180000       12.0110           0
     18489 MEMB     131      DOPC     H4R      HAL2     0.900000E-01   1.00800           0
     18490 MEMB     131      DOPC     H4S      HAL2     0.900000E-01   1.00800           0
     18491 MEMB     131      DOPC     C25      CTL2    -0.180000       12.0110           0
     18492 MEMB     131      DOPC     H5R      HAL2     0.900000E-01   1.00800           0
     18493 MEMB     131      DOPC     H5S      HAL2     0.900000E-01   1.00800           0
     18494 MEMB     131      DOPC     C26      CTL2    -0.180000       12.0110           0
     18495 MEMB     131      DOPC     H6R      HAL2     0.900000E-01   1.00800           0
     18496 MEMB     131      DOPC     H6S      HAL2     0.900000E-01   1.00800           0
     18497 MEMB     131      DOPC     C27      CTL2    -0.180000       12.0110           0
     18498 MEMB     131      DOPC     H7R      HAL2     0.900000E-01   1.00800           0
     18499 MEMB     131      DOPC     H7S      HAL2     0.900000E-01   1.00800           0
     18500 MEMB     131      DOPC     C28      CTL2    -0.180000       12.0110           0
     18501 MEMB     131      DOPC     H8R      HAL2     0.900000E-01   1.00800           0
     18502 MEMB     131      DOPC     H8S      HAL2     0.900000E-01   1.00800           0
     18503 MEMB     131      DOPC     C29      CEL1    -0.150000       12.0110           0
     18504 MEMB     131      DOPC     H9R      HEL1     0.150000       1.00800           0
     18505 MEMB     131      DOPC     C210     CEL1    -0.150000       12.0110           0
     18506 MEMB     131      DOPC     H10R     HEL1     0.150000       1.00800           0
     18507 MEMB     131      DOPC     C211     CTL2    -0.180000       12.0110           0
     18508 MEMB     131      DOPC     H11R     HAL2     0.900000E-01   1.00800           0
     18509 MEMB     131      DOPC     H11S     HAL2     0.900000E-01   1.00800           0
     18510 MEMB     131      DOPC     C212     CTL2    -0.180000       12.0110           0
     18511 MEMB     131      DOPC     H12R     HAL2     0.900000E-01   1.00800           0
     18512 MEMB     131      DOPC     H12S     HAL2     0.900000E-01   1.00800           0
     18513 MEMB     131      DOPC     C213     CTL2    -0.180000       12.0110           0
     18514 MEMB     131      DOPC     H13R     HAL2     0.900000E-01   1.00800           0
     18515 MEMB     131      DOPC     H13S     HAL2     0.900000E-01   1.00800           0
     18516 MEMB     131      DOPC     C214     CTL2    -0.180000       12.0110           0
     18517 MEMB     131      DOPC     H14R     HAL2     0.900000E-01   1.00800           0
     18518 MEMB     131      DOPC     H14S     HAL2     0.900000E-01   1.00800           0
     18519 MEMB     131      DOPC     C215     CTL2    -0.180000       12.0110           0
     18520 MEMB     131      DOPC     H15R     HAL2     0.900000E-01   1.00800           0
     18521 MEMB     131      DOPC     H15S     HAL2     0.900000E-01   1.00800           0
     18522 MEMB     131      DOPC     C216     CTL2    -0.180000       12.0110           0
     18523 MEMB     131      DOPC     H16R     HAL2     0.900000E-01   1.00800           0
     18524 MEMB     131      DOPC     H16S     HAL2     0.900000E-01   1.00800           0
     18525 MEMB     131      DOPC     C217     CTL2    -0.180000       12.0110           0
     18526 MEMB     131      DOPC     H17R     HAL2     0.900000E-01   1.00800           0
     18527 MEMB     131      DOPC     H17S     HAL2     0.900000E-01   1.00800           0
     18528 MEMB     131      DOPC     C218     CTL3    -0.270000       12.0110           0
     18529 MEMB     131      DOPC     H18R     HAL3     0.900000E-01   1.00800           0
     18530 MEMB     131      DOPC     H18S     HAL3     0.900000E-01   1.00800           0
     18531 MEMB     131      DOPC     H18T     HAL3     0.900000E-01   1.00800           0
     18532 MEMB     131      DOPC     C33      CTL2    -0.180000       12.0110           0
     18533 MEMB     131      DOPC     H3X      HAL2     0.900000E-01   1.00800           0
     18534 MEMB     131      DOPC     H3Y      HAL2     0.900000E-01   1.00800           0
     18535 MEMB     131      DOPC     C34      CTL2    -0.180000       12.0110           0
     18536 MEMB     131      DOPC     H4X      HAL2     0.900000E-01   1.00800           0
     18537 MEMB     131      DOPC     H4Y      HAL2     0.900000E-01   1.00800           0
     18538 MEMB     131      DOPC     C35      CTL2    -0.180000       12.0110           0
     18539 MEMB     131      DOPC     H5X      HAL2     0.900000E-01   1.00800           0
     18540 MEMB     131      DOPC     H5Y      HAL2     0.900000E-01   1.00800           0
     18541 MEMB     131      DOPC     C36      CTL2    -0.180000       12.0110           0
     18542 MEMB     131      DOPC     H6X      HAL2     0.900000E-01   1.00800           0
     18543 MEMB     131      DOPC     H6Y      HAL2     0.900000E-01   1.00800           0
     18544 MEMB     131      DOPC     C37      CTL2    -0.180000       12.0110           0
     18545 MEMB     131      DOPC     H7X      HAL2     0.900000E-01   1.00800           0
     18546 MEMB     131      DOPC     H7Y      HAL2     0.900000E-01   1.00800           0
     18547 MEMB     131      DOPC     C38      CTL2    -0.180000       12.0110           0
     18548 MEMB     131      DOPC     H8X      HAL2     0.900000E-01   1.00800           0
     18549 MEMB     131      DOPC     H8Y      HAL2     0.900000E-01   1.00800           0
     18550 MEMB     131      DOPC     C39      CEL1    -0.150000       12.0110           0
     18551 MEMB     131      DOPC     H9X      HEL1     0.150000       1.00800           0
     18552 MEMB     131      DOPC     C310     CEL1    -0.150000       12.0110           0
     18553 MEMB     131      DOPC     H10X     HEL1     0.150000       1.00800           0
     18554 MEMB     131      DOPC     C311     CTL2    -0.180000       12.0110           0
     18555 MEMB     131      DOPC     H11X     HAL2     0.900000E-01   1.00800           0
     18556 MEMB     131      DOPC     H11Y     HAL2     0.900000E-01   1.00800           0
     18557 MEMB     131      DOPC     C312     CTL2    -0.180000       12.0110           0
     18558 MEMB     131      DOPC     H12X     HAL2     0.900000E-01   1.00800           0
     18559 MEMB     131      DOPC     H12Y     HAL2     0.900000E-01   1.00800           0
     18560 MEMB     131      DOPC     C313     CTL2    -0.180000       12.0110           0
     18561 MEMB     131      DOPC     H13X     HAL2     0.900000E-01   1.00800           0
     18562 MEMB     131      DOPC     H13Y     HAL2     0.900000E-01   1.00800           0
     18563 MEMB     131      DOPC     C314     CTL2    -0.180000       12.0110           0
     18564 MEMB     131      DOPC     H14X     HAL2     0.900000E-01   1.00800           0
     18565 MEMB     131      DOPC     H14Y     HAL2     0.900000E-01   1.00800           0
     18566 MEMB     131      DOPC     C315     CTL2    -0.180000       12.0110           0
     18567 MEMB     131      DOPC     H15X     HAL2     0.900000E-01   1.00800           0
     18568 MEMB     131      DOPC     H15Y     HAL2     0.900000E-01   1.00800           0
     18569 MEMB     131      DOPC     C316     CTL2    -0.180000       12.0110           0
     18570 MEMB     131      DOPC     H16X     HAL2     0.900000E-01   1.00800           0
     18571 MEMB     131      DOPC     H16Y     HAL2     0.900000E-01   1.00800           0
     18572 MEMB     131      DOPC     C317     CTL2    -0.180000       12.0110           0
     18573 MEMB     131      DOPC     H17X     HAL2     0.900000E-01   1.00800           0
     18574 MEMB     131      DOPC     H17Y     HAL2     0.900000E-01   1.00800           0
     18575 MEMB     131      DOPC     C318     CTL3    -0.270000       12.0110           0
     18576 MEMB     131      DOPC     H18X     HAL3     0.900000E-01   1.00800           0
     18577 MEMB     131      DOPC     H18Y     HAL3     0.900000E-01   1.00800           0
     18578 MEMB     131      DOPC     H18Z     HAL3     0.900000E-01   1.00800           0
     18579 MEMB     132      DOPC     N        NTL     -0.600000       14.0070           0
     18580 MEMB     132      DOPC     C12      CTL2    -0.100000       12.0110           0
     18581 MEMB     132      DOPC     H12A     HL       0.250000       1.00800           0
     18582 MEMB     132      DOPC     H12B     HL       0.250000       1.00800           0
     18583 MEMB     132      DOPC     C13      CTL5    -0.350000       12.0110           0
     18584 MEMB     132      DOPC     H13A     HL       0.250000       1.00800           0
     18585 MEMB     132      DOPC     H13B     HL       0.250000       1.00800           0
     18586 MEMB     132      DOPC     H13C     HL       0.250000       1.00800           0
     18587 MEMB     132      DOPC     C14      CTL5    -0.350000       12.0110           0
     18588 MEMB     132      DOPC     H14A     HL       0.250000       1.00800           0
     18589 MEMB     132      DOPC     H14B     HL       0.250000       1.00800           0
     18590 MEMB     132      DOPC     H14C     HL       0.250000       1.00800           0
     18591 MEMB     132      DOPC     C15      CTL5    -0.350000       12.0110           0
     18592 MEMB     132      DOPC     H15A     HL       0.250000       1.00800           0
     18593 MEMB     132      DOPC     H15B     HL       0.250000       1.00800           0
     18594 MEMB     132      DOPC     H15C     HL       0.250000       1.00800           0
     18595 MEMB     132      DOPC     C11      CTL2    -0.800000E-01   12.0110           0
     18596 MEMB     132      DOPC     H11A     HAL2     0.900000E-01   1.00800           0
     18597 MEMB     132      DOPC     H11B     HAL2     0.900000E-01   1.00800           0
     18598 MEMB     132      DOPC     P        PL        1.50000       30.9740           0
     18599 MEMB     132      DOPC     O13      O2L     -0.780000       15.9994           0
     18600 MEMB     132      DOPC     O14      O2L     -0.780000       15.9994           0
     18601 MEMB     132      DOPC     O12      OSLP    -0.570000       15.9994           0
     18602 MEMB     132      DOPC     O11      OSLP    -0.570000       15.9994           0
     18603 MEMB     132      DOPC     C1       CTL2    -0.800000E-01   12.0110           0
     18604 MEMB     132      DOPC     HA       HAL2     0.900000E-01   1.00800           0
     18605 MEMB     132      DOPC     HB       HAL2     0.900000E-01   1.00800           0
     18606 MEMB     132      DOPC     C2       CTL1     0.170000       12.0110           0
     18607 MEMB     132      DOPC     HS       HAL1     0.900000E-01   1.00800           0
     18608 MEMB     132      DOPC     O21      OSL     -0.490000       15.9994           0
     18609 MEMB     132      DOPC     C21      CL       0.900000       12.0110           0
     18610 MEMB     132      DOPC     O22      OBL     -0.630000       15.9994           0
     18611 MEMB     132      DOPC     C22      CTL2    -0.220000       12.0110           0
     18612 MEMB     132      DOPC     H2R      HAL2     0.900000E-01   1.00800           0
     18613 MEMB     132      DOPC     H2S      HAL2     0.900000E-01   1.00800           0
     18614 MEMB     132      DOPC     C3       CTL2     0.800000E-01   12.0110           0
     18615 MEMB     132      DOPC     HX       HAL2     0.900000E-01   1.00800           0
     18616 MEMB     132      DOPC     HY       HAL2     0.900000E-01   1.00800           0
     18617 MEMB     132      DOPC     O31      OSL     -0.490000       15.9994           0
     18618 MEMB     132      DOPC     C31      CL       0.900000       12.0110           0
     18619 MEMB     132      DOPC     O32      OBL     -0.630000       15.9994           0
     18620 MEMB     132      DOPC     C32      CTL2    -0.220000       12.0110           0
     18621 MEMB     132      DOPC     H2X      HAL2     0.900000E-01   1.00800           0
     18622 MEMB     132      DOPC     H2Y      HAL2     0.900000E-01   1.00800           0
     18623 MEMB     132      DOPC     C23      CTL2    -0.180000       12.0110           0
     18624 MEMB     132      DOPC     H3R      HAL2     0.900000E-01   1.00800           0
     18625 MEMB     132      DOPC     H3S      HAL2     0.900000E-01   1.00800           0
     18626 MEMB     132      DOPC     C24      CTL2    -0.180000       12.0110           0
     18627 MEMB     132      DOPC     H4R      HAL2     0.900000E-01   1.00800           0
     18628 MEMB     132      DOPC     H4S      HAL2     0.900000E-01   1.00800           0
     18629 MEMB     132      DOPC     C25      CTL2    -0.180000       12.0110           0
     18630 MEMB     132      DOPC     H5R      HAL2     0.900000E-01   1.00800           0
     18631 MEMB     132      DOPC     H5S      HAL2     0.900000E-01   1.00800           0
     18632 MEMB     132      DOPC     C26      CTL2    -0.180000       12.0110           0
     18633 MEMB     132      DOPC     H6R      HAL2     0.900000E-01   1.00800           0
     18634 MEMB     132      DOPC     H6S      HAL2     0.900000E-01   1.00800           0
     18635 MEMB     132      DOPC     C27      CTL2    -0.180000       12.0110           0
     18636 MEMB     132      DOPC     H7R      HAL2     0.900000E-01   1.00800           0
     18637 MEMB     132      DOPC     H7S      HAL2     0.900000E-01   1.00800           0
     18638 MEMB     132      DOPC     C28      CTL2    -0.180000       12.0110           0
     18639 MEMB     132      DOPC     H8R      HAL2     0.900000E-01   1.00800           0
     18640 MEMB     132      DOPC     H8S      HAL2     0.900000E-01   1.00800           0
     18641 MEMB     132      DOPC     C29      CEL1    -0.150000       12.0110           0
     18642 MEMB     132      DOPC     H9R      HEL1     0.150000       1.00800           0
     18643 MEMB     132      DOPC     C210     CEL1    -0.150000       12.0110           0
     18644 MEMB     132      DOPC     H10R     HEL1     0.150000       1.00800           0
     18645 MEMB     132      DOPC     C211     CTL2    -0.180000       12.0110           0
     18646 MEMB     132      DOPC     H11R     HAL2     0.900000E-01   1.00800           0
     18647 MEMB     132      DOPC     H11S     HAL2     0.900000E-01   1.00800           0
     18648 MEMB     132      DOPC     C212     CTL2    -0.180000       12.0110           0
     18649 MEMB     132      DOPC     H12R     HAL2     0.900000E-01   1.00800           0
     18650 MEMB     132      DOPC     H12S     HAL2     0.900000E-01   1.00800           0
     18651 MEMB     132      DOPC     C213     CTL2    -0.180000       12.0110           0
     18652 MEMB     132      DOPC     H13R     HAL2     0.900000E-01   1.00800           0
     18653 MEMB     132      DOPC     H13S     HAL2     0.900000E-01   1.00800           0
     18654 MEMB     132      DOPC     C214     CTL2    -0.180000       12.0110           0
     18655 MEMB     132      DOPC     H14R     HAL2     0.900000E-01   1.00800           0
     18656 MEMB     132      DOPC     H14S     HAL2     0.900000E-01   1.00800           0
     18657 MEMB     132      DOPC     C215     CTL2    -0.180000       12.0110           0
     18658 MEMB     132      DOPC     H15R     HAL2     0.900000E-01   1.00800           0
     18659 MEMB     132      DOPC     H15S     HAL2     0.900000E-01   1.00800           0
     18660 MEMB     132      DOPC     C216     CTL2    -0.180000       12.0110           0
     18661 MEMB     132      DOPC     H16R     HAL2     0.900000E-01   1.00800           0
     18662 MEMB     132      DOPC     H16S     HAL2     0.900000E-01   1.00800           0
     18663 MEMB     132      DOPC     C217     CTL2    -0.180000       12.0110           0
     18664 MEMB     132      DOPC     H17R     HAL2     0.900000E-01   1.00800           0
     18665 MEMB     132      DOPC     H17S     HAL2     0.900000E-01   1.00800           0
     18666 MEMB     132      DOPC     C218     CTL3    -0.270000       12.0110           0
     18667 MEMB     132      DOPC     H18R     HAL3     0.900000E-01   1.00800           0
     18668 MEMB     132      DOPC     H18S     HAL3     0.900000E-01   1.00800           0
     18669 MEMB     132      DOPC     H18T     HAL3     0.900000E-01   1.00800           0
     18670 MEMB     132      DOPC     C33      CTL2    -0.180000       12.0110           0
     18671 MEMB     132      DOPC     H3X      HAL2     0.900000E-01   1.00800           0
     18672 MEMB     132      DOPC     H3Y      HAL2     0.900000E-01   1.00800           0
     18673 MEMB     132      DOPC     C34      CTL2    -0.180000       12.0110           0
     18674 MEMB     132      DOPC     H4X      HAL2     0.900000E-01   1.00800           0
     18675 MEMB     132      DOPC     H4Y      HAL2     0.900000E-01   1.00800           0
     18676 MEMB     132      DOPC     C35      CTL2    -0.180000       12.0110           0
     18677 MEMB     132      DOPC     H5X      HAL2     0.900000E-01   1.00800           0
     18678 MEMB     132      DOPC     H5Y      HAL2     0.900000E-01   1.00800           0
     18679 MEMB     132      DOPC     C36      CTL2    -0.180000       12.0110           0
     18680 MEMB     132      DOPC     H6X      HAL2     0.900000E-01   1.00800           0
     18681 MEMB     132      DOPC     H6Y      HAL2     0.900000E-01   1.00800           0
     18682 MEMB     132      DOPC     C37      CTL2    -0.180000       12.0110           0
     18683 MEMB     132      DOPC     H7X      HAL2     0.900000E-01   1.00800           0
     18684 MEMB     132      DOPC     H7Y      HAL2     0.900000E-01   1.00800           0
     18685 MEMB     132      DOPC     C38      CTL2    -0.180000       12.0110           0
     18686 MEMB     132      DOPC     H8X      HAL2     0.900000E-01   1.00800           0
     18687 MEMB     132      DOPC     H8Y      HAL2     0.900000E-01   1.00800           0
     18688 MEMB     132      DOPC     C39      CEL1    -0.150000       12.0110           0
     18689 MEMB     132      DOPC     H9X      HEL1     0.150000       1.00800           0
     18690 MEMB     132      DOPC     C310     CEL1    -0.150000       12.0110           0
     18691 MEMB     132      DOPC     H10X     HEL1     0.150000       1.00800           0
     18692 MEMB     132      DOPC     C311     CTL2    -0.180000       12.0110           0
     18693 MEMB     132      DOPC     H11X     HAL2     0.900000E-01   1.00800           0
     18694 MEMB     132      DOPC     H11Y     HAL2     0.900000E-01   1.00800           0
     18695 MEMB     132      DOPC     C312     CTL2    -0.180000       12.0110           0
     18696 MEMB     132      DOPC     H12X     HAL2     0.900000E-01   1.00800           0
     18697 MEMB     132      DOPC     H12Y     HAL2     0.900000E-01   1.00800           0
     18698 MEMB     132      DOPC     C313     CTL2    -0.180000       12.0110           0
     18699 MEMB     132      DOPC     H13X     HAL2     0.900000E-01   1.00800           0
     18700 MEMB     132      DOPC     H13Y     HAL2     0.900000E-01   1.00800           0
     18701 MEMB     132      DOPC     C314     CTL2    -0.180000       12.0110           0
     18702 MEMB     132      DOPC     H14X     HAL2     0.900000E-01   1.00800           0
     18703 MEMB     132      DOPC     H14Y     HAL2     0.900000E-01   1.00800           0
     18704 MEMB     132      DOPC     C315     CTL2    -0.180000       12.0110           0
     18705 MEMB     132      DOPC     H15X     HAL2     0.900000E-01   1.00800           0
     18706 MEMB     132      DOPC     H15Y     HAL2     0.900000E-01   1.00800           0
     18707 MEMB     132      DOPC     C316     CTL2    -0.180000       12.0110           0
     18708 MEMB     132      DOPC     H16X     HAL2     0.900000E-01   1.00800           0
     18709 MEMB     132      DOPC     H16Y     HAL2     0.900000E-01   1.00800           0
     18710 MEMB     132      DOPC     C317     CTL2    -0.180000       12.0110           0
     18711 MEMB     132      DOPC     H17X     HAL2     0.900000E-01   1.00800           0
     18712 MEMB     132      DOPC     H17Y     HAL2     0.900000E-01   1.00800           0
     18713 MEMB     132      DOPC     C318     CTL3    -0.270000       12.0110           0
     18714 MEMB     132      DOPC     H18X     HAL3     0.900000E-01   1.00800           0
     18715 MEMB     132      DOPC     H18Y     HAL3     0.900000E-01   1.00800           0
     18716 MEMB     132      DOPC     H18Z     HAL3     0.900000E-01   1.00800           0

     18598 !NBOND: bonds
         2         1         3         1         4         1         1         5
         8         5         8        10         5         6         5         7
         9         8        14        12        10        11        10        12
        18        12        18        20        12        13        14        15
        14        16        14        17        19        18        24        22
        27        24        29        27        33        27        20        21
        20        22        37        22        37        39        22        23
        24        25        24        26        27        28        29        30
        29        31        29        32        33        34        33        35
        33        36        38        37        43        41        39        40
        39        41        47        41        47        49        41        42
        43        44        43        45        43        46        48        47
        53        51        55        53        59        53        49        50
        49        51        63        51        63        65        51        52
        53        54        55        56        55        57        55        58
        59        60        59        61        59        62        64        63
        69        67        71        69        75        69        65        66
        65        67        79        67        79        81        67        68
        69        70        71        72        71        73        71        74
        75        76        75        77        75        78        80        79
        85        83        87        85        91        85        81        82
        81        83        95        83        95        97        83        84
        85        86        87        88        87        89        87        90
        91        92        91        93        91        94        96        95
       101        99       104       101       110       104       107       105
       115       109        97        98        97        99       119        99
       119       121       113       117       110       111       107       109
        99       100       101       102       101       103       105       106
       107       108       111       112       115       116       113       114
       117       118       120       119       105       104       109       110
       113       111       117       115       125       123       128       125
       130       128       134       128       121       122       121       123
       138       123       138       140       123       124       125       126
       125       127       128       129       130       131       130       132
       130       133       134       135       134       136       134       137
       139       138       144       142       147       144       153       147
       150       148       158       152       140       141       140       142
       162       142       162       164       156       160       153       154
       150       152       142       143       144       145       144       146
       148       149       150       151       154       155       158       159
       156       157       160       161       163       162       148       147
       152       153       156       154       160       158       168       166
       171       168       173       171       177       171       164       165
       164       166       181       166       181       183       166       167
       168       169       168       170       171       172       173       174
       173       175       173       176       177       178       177       179
       177       180       182       181       187       185       190       187
       196       190       193       191       201       195       183       184
       183       185       205       185       205       207       199       203
       196       197       193       195       185       186       187       188
       187       189       191       192       193       194       197       198
       201       202       199       200       203       204       206       205
       191       190       195       196       199       197       203       201
       211       209       214       211       216       214       220       214
       207       208       207       209       224       209       224       226
       209       210       211       212       211       213       214       215
       216       217       216       218       216       219       220       221
       220       222       220       223       225       224       230       228
       233       230       239       233       236       234       244       238
       226       227       226       228       248       228       242       246
       239       240       236       238       228       229       230       231
       230       232       234       235       236       237       240       241
       244       245       242       243       246       247       234       233
       238       239       242       240       246       244       248       250
       248       249       252       251       253       251       254       251
       251       255       258       255       258       260       255       256
       255       257       259       258       264       262       260       261
       260       262       268       262       268       270       262       263
       264       265       264       266       264       267       269       268
       274       272       277       274       279       277       283       277
       270       271       270       272       287       272       287       289
       272       273       274       275       274       276       277       278
       279       280       279       281       279       282       283       284
       283       285       283       286       288       287       293       291
       289       290       289       291       297       291       297       299
       291       292       293       294       293       295       293       296
       298       297       303       301       305       303       309       303
       299       300       299       301       313       301       313       315
       301       302       303       304       305       306       305       307
       305       308       309       310       309       311       309       312
       314       313       319       317       321       319       325       319
       315       316       315       317       329       317       329       331
       317       318       319       320       321       322       321       323
       321       324       325       326       325       327       325       328
       330       329       335       333       337       335       341       335
       331       332       331       333       345       333       345       347
       333       334       335       336       337       338       337       339
       337       340       341       342       341       343       341       344
       346       345       351       349       354       351       360       354
       357       355       365       359       347       348       347       349
       369       349       369       371       363       367       360       361
       357       359       349       350       351       352       351       353
       355       356       357       358       361       362       365       366
       363       364       367       368       370       369       355       354
       359       360       363       361       367       365       375       373
       378       375       380       378       384       378       371       372
       371       373       388       373       388       390       373       374
       375       376       375       377       378       379       380       381
       380       382       380       383       384       385       384       386
       384       387       389       388       394       392       397       394
       403       397       400       398       408       402       390       391
       390       392       412       392       412       414       406       410
       403       404       400       402       392       393       394       395
       394       396       398       399       400       401       404       405
       408       409       406       407       410       411       413       412
       398       397       402       403       406       404       410       408
       418       416       421       418       423       421       427       421
       414       415       414       416       431       416       431       433
       416       417       418       419       418       420       421       422
       423       424       423       425       423       426       427       428
       427       429       427       430       432       431       437       435
       440       437       446       440       443       441       451       445
       433       434       433       435       455       435       455       457
       449       453       446       447       443       445       435       436
       437       438       437       439       441       442       443       444
       447       448       451       452       449       450       453       454
       456       455       441       440       445       446       449       447
       453       451       461       459       464       461       466       464
       470       464       457       458       457       459       474       459
       474       476       459       460       461       462       461       463
       464       465       466       467       466       468       466       469
       470       471       470       472       470       473       475       474
       480       478       483       480       489       483       486       484
       494       488       476       477       476       478       498       478
       492       496       489       490       486       488       478       479
       480       481       480       482       484       485       486       487
       490       491       494       495       492       493       496       497
       484       483       488       489       492       490       496       494
       498       500       498       499       501       505       501       509
       501       513       505       506       505       507       505       508
       509       510       509       511       509       512       513       514
       513       515       513       516       501       502       502       503
       502       504       502       517       517       518       517       519
       517       523       524       525       523       520       520       524
       520       521       520       522       525       526       525       527
       525       528       528       529       528       536       528       530
       536       537       536       538       536       539       530       531
       531       533       531       532       533       534       533       535
       533       545       545       546       545       547       545       548
       548       549       548       550       548       551       551       552
       551       553       551       554       554       555       554       556
       554       557       557       558       557       559       557       560
       560       561       560       562       560       563       563       564
       563       565       565       566       565       567       567       568
       567       569       567       570       570       571       570       572
       570       573       573       574       573       575       573       576
       576       577       576       578       576       579       579       580
       579       581       579       582       582       583       582       584
       582       585       585       586       585       587       585       588
       588       589       588       590       588       591       539       540
       540       542       540       541       542       543       542       544
       542       592       592       593       592       594       592       595
       595       596       595       597       595       598       598       599
       598       600       598       601       601       602       601       603
       601       604       604       605       604       606       604       607
       607       608       607       609       607       610       610       611
       610       612       612       613       612       614       614       615
       614       616       614       617       617       618       617       619
       617       620       620       621       620       622       620       623
       623       624       623       625       623       626       626       627
       626       628       626       629       629       630       629       631
       629       632       632       633       632       634       632       635
       635       636       635       637       635       638       639       643
       639       647       639       651       643       644       643       645
       643       646       647       648       647       649       647       650
       651       652       651       653       651       654       639       640
       640       641       640       642       640       655       655       656
       655       657       655       661       662       663       661       658
       658       662       658       659       658       660       663       664
       663       665       663       666       666       667       666       674
       666       668       674       675       674       676       674       677
       668       669       669       671       669       670       671       672
       671       673       671       683       683       684       683       685
       683       686       686       687       686       688       686       689
       689       690       689       691       689       692       692       693
       692       694       692       695       695       696       695       697
       695       698       698       699       698       700       698       701
       701       702       701       703       703       704       703       705
       705       706       705       707       705       708       708       709
       708       710       708       711       711       712       711       713
       711       714       714       715       714       716       714       717
       717       718       717       719       717       720       720       721
       720       722       720       723       723       724       723       725
       723       726       726       727       726       728       726       729
       677       678       678       680       678       679       680       681
       680       682       680       730       730       731       730       732
       730       733       733       734       733       735       733       736
       736       737       736       738       736       739       739       740
       739       741       739       742       742       743       742       744
       742       745       745       746       745       747       745       748
       748       749       748       750       750       751       750       752
       752       753       752       754       752       755       755       756
       755       757       755       758       758       759       758       760
       758       761       761       762       761       763       761       764
       764       765       764       766       764       767       767       768
       767       769       767       770       770       771       770       772
       770       773       773       774       773       775       773       776
       777       781       777       785       777       789       781       782
       781       783       781       784       785       786       785       787
       785       788       789       790       789       791       789       792
       777       778       778       779       778       780       778       793
       793       794       793       795       793       799       800       801
       799       796       796       800       796       797       796       798
       801       802       801       803       801       804       804       805
       804       812       804       806       812       813       812       814
       812       815       806       807       807       809       807       808
       809       810       809       811       809       821       821       822
       821       823       821       824       824       825       824       826
       824       827       827       828       827       829       827       830
       830       831       830       832       830       833       833       834
       833       835       833       836       836       837       836       838
       836       839       839       840       839       841       841       842
       841       843       843       844       843       845       843       846
       846       847       846       848       846       849       849       850
       849       851       849       852       852       853       852       854
       852       855       855       856       855       857       855       858
       858       859       858       860       858       861       861       862
       861       863       861       864       864       865       864       866
       864       867       815       816       816       818       816       817
       818       819       818       820       818       868       868       869
       868       870       868       871       871       872       871       873
       871       874       874       875       874       876       874       877
       877       878       877       879       877       880       880       881
       880       882       880       883       883       884       883       885
       883       886       886       887       886       888       888       889
       888       890       890       891       890       892       890       893
       893       894       893       895       893       896       896       897
       896       898       896       899       899       900       899       901
       899       902       902       903       902       904       902       905
       905       906       905       907       905       908       908       909
       908       910       908       911       911       912       911       913
       911       914       915       919       915       923       915       927
       919       920       919       921       919       922       923       924
       923       925       923       926       927       928       927       929
       927       930       915       916       916       917       916       918
       916       931       931       932       931       933       931       937
       938       939       937       934       934       938       934       935
       934       936       939       940       939       941       939       942
       942       943       942       950       942       944       950       951
       950       952       950       953       944       945       945       947
       945       946       947       948       947       949       947       959
       959       960       959       961       959       962       962       963
       962       964       962       965       965       966       965       967
       965       968       968       969       968       970       968       971
       971       972       971       973       971       974       974       975
       974       976       974       977       977       978       977       979
       979       980       979       981       981       982       981       983
       981       984       984       985       984       986       984       987
       987       988       987       989       987       990       990       991
       990       992       990       993       993       994       993       995
       993       996       996       997       996       998       996       999
       999      1000       999      1001       999      1002      1002      1003
      1002      1004      1002      1005       953       954       954       956
       954       955       956       957       956       958       956      1006
      1006      1007      1006      1008      1006      1009      1009      1010
      1009      1011      1009      1012      1012      1013      1012      1014
      1012      1015      1015      1016      1015      1017      1015      1018
      1018      1019      1018      1020      1018      1021      1021      1022
      1021      1023      1021      1024      1024      1025      1024      1026
      1026      1027      1026      1028      1028      1029      1028      1030
      1028      1031      1031      1032      1031      1033      1031      1034
      1034      1035      1034      1036      1034      1037      1037      1038
      1037      1039      1037      1040      1040      1041      1040      1042
      1040      1043      1043      1044      1043      1045      1043      1046
      1046      1047      1046      1048      1046      1049      1049      1050
      1049      1051      1049      1052      1053      1057      1053      1061
      1053      1065      1057      1058      1057      1059      1057      1060
      1061      1062      1061      1063      1061      1064      1065      1066
      1065      1067      1065      1068      1053      1054      1054      1055
      1054      1056      1054      1069      1069      1070      1069      1071
      1069      1075      1076      1077      1075      1072      1072      1076
      1072      1073      1072      1074      1077      1078      1077      1079
      1077      1080      1080      1081      1080      1088      1080      1082
      1088      1089      1088      1090      1088      1091      1082      1083
      1083      1085      1083      1084      1085      1086      1085      1087
      1085      1097      1097      1098      1097      1099      1097      1100
      1100      1101      1100      1102      1100      1103      1103      1104
      1103      1105      1103      1106      1106      1107      1106      1108
      1106      1109      1109      1110      1109      1111      1109      1112
      1112      1113      1112      1114      1112      1115      1115      1116
      1115      1117      1117      1118      1117      1119      1119      1120
      1119      1121      1119      1122      1122      1123      1122      1124
      1122      1125      1125      1126      1125      1127      1125      1128
      1128      1129      1128      1130      1128      1131      1131      1132
      1131      1133      1131      1134      1134      1135      1134      1136
      1134      1137      1137      1138      1137      1139      1137      1140
      1140      1141      1140      1142      1140      1143      1091      1092
      1092      1094      1092      1093      1094      1095      1094      1096
      1094      1144      1144      1145      1144      1146      1144      1147
      1147      1148      1147      1149      1147      1150      1150      1151
      1150      1152      1150      1153      1153      1154      1153      1155
      1153      1156      1156      1157      1156      1158      1156      1159
      1159      1160      1159      1161      1159      1162      1162      1163
      1162      1164      1164      1165      1164      1166      1166      1167
      1166      1168      1166      1169      1169      1170      1169      1171
      1169      1172      1172      1173      1172      1174      1172      1175
      1175      1176      1175      1177      1175      1178      1178      1179
      1178      1180      1178      1181      1181      1182      1181      1183
      1181      1184      1184      1185      1184      1186      1184      1187
      1187      1188      1187      1189      1187      1190      1191      1195
      1191      1199      1191      1203      1195      1196      1195      1197
      1195      1198      1199      1200      1199      1201      1199      1202
      1203      1204      1203      1205      1203      1206      1191      1192
      1192      1193      1192      1194      1192      1207      1207      1208
      1207      1209      1207      1213      1214      1215      1213      1210
      1210      1214      1210      1211      1210      1212      1215      1216
      1215      1217      1215      1218      1218      1219      1218      1226
      1218      1220      1226      1227      1226      1228      1226      1229
      1220      1221      1221      1223      1221      1222      1223      1224
      1223      1225      1223      1235      1235      1236      1235      1237
      1235      1238      1238      1239      1238      1240      1238      1241
      1241      1242      1241      1243      1241      1244      1244      1245
      1244      1246      1244      1247      1247      1248      1247      1249
      1247      1250      1250      1251      1250      1252      1250      1253
      1253      1254      1253      1255      1255      1256      1255      1257
      1257      1258      1257      1259      1257      1260      1260      1261
      1260      1262      1260      1263      1263      1264      1263      1265
      1263      1266      1266      1267      1266      1268      1266      1269
      1269      1270      1269      1271      1269      1272      1272      1273
      1272      1274      1272      1275      1275      1276      1275      1277
      1275      1278      1278      1279      1278      1280      1278      1281
      1229      1230      1230      1232      1230      1231      1232      1233
      1232      1234      1232      1282      1282      1283      1282      1284
      1282      1285      1285      1286      1285      1287      1285      1288
      1288      1289      1288      1290      1288      1291      1291      1292
      1291      1293      1291      1294      1294      1295      1294      1296
      1294      1297      1297      1298      1297      1299      1297      1300
      1300      1301      1300      1302      1302      1303      1302      1304
      1304      1305      1304      1306      1304      1307      1307      1308
      1307      1309      1307      1310      1310      1311      1310      1312
      1310      1313      1313      1314      1313      1315      1313      1316
      1316      1317      1316      1318      1316      1319      1319      1320
      1319      1321      1319      1322      1322      1323      1322      1324
      1322      1325      1325      1326      1325      1327      1325      1328
      1329      1333      1329      1337      1329      1341      1333      1334
      1333      1335      1333      1336      1337      1338      1337      1339
      1337      1340      1341      1342      1341      1343      1341      1344
      1329      1330      1330      1331      1330      1332      1330      1345
      1345      1346      1345      1347      1345      1351      1352      1353
      1351      1348      1348      1352      1348      1349      1348      1350
      1353      1354      1353      1355      1353      1356      1356      1357
      1356      1364      1356      1358      1364      1365      1364      1366
      1364      1367      1358      1359      1359      1361      1359      1360
      1361      1362      1361      1363      1361      1373      1373      1374
      1373      1375      1373      1376      1376      1377      1376      1378
      1376      1379      1379      1380      1379      1381      1379      1382
      1382      1383      1382      1384      1382      1385      1385      1386
      1385      1387      1385      1388      1388      1389      1388      1390
      1388      1391      1391      1392      1391      1393      1393      1394
      1393      1395      1395      1396      1395      1397      1395      1398
      1398      1399      1398      1400      1398      1401      1401      1402
      1401      1403      1401      1404      1404      1405      1404      1406
      1404      1407      1407      1408      1407      1409      1407      1410
      1410      1411      1410      1412      1410      1413      1413      1414
      1413      1415      1413      1416      1416      1417      1416      1418
      1416      1419      1367      1368      1368      1370      1368      1369
      1370      1371      1370      1372      1370      1420      1420      1421
      1420      1422      1420      1423      1423      1424      1423      1425
      1423      1426      1426      1427      1426      1428      1426      1429
      1429      1430      1429      1431      1429      1432      1432      1433
      1432      1434      1432      1435      1435      1436      1435      1437
      1435      1438      1438      1439      1438      1440      1440      1441
      1440      1442      1442      1443      1442      1444      1442      1445
      1445      1446      1445      1447      1445      1448      1448      1449
      1448      1450      1448      1451      1451      1452      1451      1453
      1451      1454      1454      1455      1454      1456      1454      1457
      1457      1458      1457      1459      1457      1460      1460      1461
      1460      1462      1460      1463      1463      1464      1463      1465
      1463      1466      1467      1471      1467      1475      1467      1479
      1471      1472      1471      1473      1471      1474      1475      1476
      1475      1477      1475      1478      1479      1480      1479      1481
      1479      1482      1467      1468      1468      1469      1468      1470
      1468      1483      1483      1484      1483      1485      1483      1489
      1490      1491      1489      1486      1486      1490      1486      1487
      1486      1488      1491      1492      1491      1493      1491      1494
      1494      1495      1494      1502      1494      1496      1502      1503
      1502      1504      1502      1505      1496      1497      1497      1499
      1497      1498      1499      1500      1499      1501      1499      1511
      1511      1512      1511      1513      1511      1514      1514      1515
      1514      1516      1514      1517      1517      1518      1517      1519
      1517      1520      1520      1521      1520      1522      1520      1523
      1523      1524      1523      1525      1523      1526      1526      1527
      1526      1528      1526      1529      1529      1530      1529      1531
      1531      1532      1531      1533      1533      1534      1533      1535
      1533      1536      1536      1537      1536      1538      1536      1539
      1539      1540      1539      1541      1539      1542      1542      1543
      1542      1544      1542      1545      1545      1546      1545      1547
      1545      1548      1548      1549      1548      1550      1548      1551
      1551      1552      1551      1553      1551      1554      1554      1555
      1554      1556      1554      1557      1505      1506      1506      1508
      1506      1507      1508      1509      1508      1510      1508      1558
      1558      1559      1558      1560      1558      1561      1561      1562
      1561      1563      1561      1564      1564      1565      1564      1566
      1564      1567      1567      1568      1567      1569      1567      1570
      1570      1571      1570      1572      1570      1573      1573      1574
      1573      1575      1573      1576      1576      1577      1576      1578
      1578      1579      1578      1580      1580      1581      1580      1582
      1580      1583      1583      1584      1583      1585      1583      1586
      1586      1587      1586      1588      1586      1589      1589      1590
      1589      1591      1589      1592      1592      1593      1592      1594
      1592      1595      1595      1596      1595      1597      1595      1598
      1598      1599      1598      1600      1598      1601      1601      1602
      1601      1603      1601      1604      1605      1609      1605      1613
      1605      1617      1609      1610      1609      1611      1609      1612
      1613      1614      1613      1615      1613      1616      1617      1618
      1617      1619      1617      1620      1605      1606      1606      1607
      1606      1608      1606      1621      1621      1622      1621      1623
      1621      1627      1628      1629      1627      1624      1624      1628
      1624      1625      1624      1626      1629      1630      1629      1631
      1629      1632      1632      1633      1632      1640      1632      1634
      1640      1641      1640      1642      1640      1643      1634      1635
      1635      1637      1635      1636      1637      1638      1637      1639
      1637      1649      1649      1650      1649      1651      1649      1652
      1652      1653      1652      1654      1652      1655      1655      1656
      1655      1657      1655      1658      1658      1659      1658      1660
      1658      1661      1661      1662      1661      1663      1661      1664
      1664      1665      1664      1666      1664      1667      1667      1668
      1667      1669      1669      1670      1669      1671      1671      1672
      1671      1673      1671      1674      1674      1675      1674      1676
      1674      1677      1677      1678      1677      1679      1677      1680
      1680      1681      1680      1682      1680      1683      1683      1684
      1683      1685      1683      1686      1686      1687      1686      1688
      1686      1689      1689      1690      1689      1691      1689      1692
      1692      1693      1692      1694      1692      1695      1643      1644
      1644      1646      1644      1645      1646      1647      1646      1648
      1646      1696      1696      1697      1696      1698      1696      1699
      1699      1700      1699      1701      1699      1702      1702      1703
      1702      1704      1702      1705      1705      1706      1705      1707
      1705      1708      1708      1709      1708      1710      1708      1711
      1711      1712      1711      1713      1711      1714      1714      1715
      1714      1716      1716      1717      1716      1718      1718      1719
      1718      1720      1718      1721      1721      1722      1721      1723
      1721      1724      1724      1725      1724      1726      1724      1727
      1727      1728      1727      1729      1727      1730      1730      1731
      1730      1732      1730      1733      1733      1734      1733      1735
      1733      1736      1736      1737      1736      1738      1736      1739
      1739      1740      1739      1741      1739      1742      1743      1747
      1743      1751      1743      1755      1747      1748      1747      1749
      1747      1750      1751      1752      1751      1753      1751      1754
      1755      1756      1755      1757      1755      1758      1743      1744
      1744      1745      1744      1746      1744      1759      1759      1760
      1759      1761      1759      1765      1766      1767      1765      1762
      1762      1766      1762      1763      1762      1764      1767      1768
      1767      1769      1767      1770      1770      1771      1770      1778
      1770      1772      1778      1779      1778      1780      1778      1781
      1772      1773      1773      1775      1773      1774      1775      1776
      1775      1777      1775      1787      1787      1788      1787      1789
      1787      1790      1790      1791      1790      1792      1790      1793
      1793      1794      1793      1795      1793      1796      1796      1797
      1796      1798      1796      1799      1799      1800      1799      1801
      1799      1802      1802      1803      1802      1804      1802      1805
      1805      1806      1805      1807      1807      1808      1807      1809
      1809      1810      1809      1811      1809      1812      1812      1813
      1812      1814      1812      1815      1815      1816      1815      1817
      1815      1818      1818      1819      1818      1820      1818      1821
      1821      1822      1821      1823      1821      1824      1824      1825
      1824      1826      1824      1827      1827      1828      1827      1829
      1827      1830      1830      1831      1830      1832      1830      1833
      1781      1782      1782      1784      1782      1783      1784      1785
      1784      1786      1784      1834      1834      1835      1834      1836
      1834      1837      1837      1838      1837      1839      1837      1840
      1840      1841      1840      1842      1840      1843      1843      1844
      1843      1845      1843      1846      1846      1847      1846      1848
      1846      1849      1849      1850      1849      1851      1849      1852
      1852      1853      1852      1854      1854      1855      1854      1856
      1856      1857      1856      1858      1856      1859      1859      1860
      1859      1861      1859      1862      1862      1863      1862      1864
      1862      1865      1865      1866      1865      1867      1865      1868
      1868      1869      1868      1870      1868      1871      1871      1872
      1871      1873      1871      1874      1874      1875      1874      1876
      1874      1877      1877      1878      1877      1879      1877      1880
      1881      1885      1881      1889      1881      1893      1885      1886
      1885      1887      1885      1888      1889      1890      1889      1891
      1889      1892      1893      1894      1893      1895      1893      1896
      1881      1882      1882      1883      1882      1884      1882      1897
      1897      1898      1897      1899      1897      1903      1904      1905
      1903      1900      1900      1904      1900      1901      1900      1902
      1905      1906      1905      1907      1905      1908      1908      1909
      1908      1916      1908      1910      1916      1917      1916      1918
      1916      1919      1910      1911      1911      1913      1911      1912
      1913      1914      1913      1915      1913      1925      1925      1926
      1925      1927      1925      1928      1928      1929      1928      1930
      1928      1931      1931      1932      1931      1933      1931      1934
      1934      1935      1934      1936      1934      1937      1937      1938
      1937      1939      1937      1940      1940      1941      1940      1942
      1940      1943      1943      1944      1943      1945      1945      1946
      1945      1947      1947      1948      1947      1949      1947      1950
      1950      1951      1950      1952      1950      1953      1953      1954
      1953      1955      1953      1956      1956      1957      1956      1958
      1956      1959      1959      1960      1959      1961      1959      1962
      1962      1963      1962      1964      1962      1965      1965      1966
      1965      1967      1965      1968      1968      1969      1968      1970
      1968      1971      1919      1920      1920      1922      1920      1921
      1922      1923      1922      1924      1922      1972      1972      1973
      1972      1974      1972      1975      1975      1976      1975      1977
      1975      1978      1978      1979      1978      1980      1978      1981
      1981      1982      1981      1983      1981      1984      1984      1985
      1984      1986      1984      1987      1987      1988      1987      1989
      1987      1990      1990      1991      1990      1992      1992      1993
      1992      1994      1994      1995      1994      1996      1994      1997
      1997      1998      1997      1999      1997      2000      2000      2001
      2000      2002      2000      2003      2003      2004      2003      2005
      2003      2006      2006      2007      2006      2008      2006      2009
      2009      2010      2009      2011      2009      2012      2012      2013
      2012      2014      2012      2015      2015      2016      2015      2017
      2015      2018      2019      2023      2019      2027      2019      2031
      2023      2024      2023      2025      2023      2026      2027      2028
      2027      2029      2027      2030      2031      2032      2031      2033
      2031      2034      2019      2020      2020      2021      2020      2022
      2020      2035      2035      2036      2035      2037      2035      2041
      2042      2043      2041      2038      2038      2042      2038      2039
      2038      2040      2043      2044      2043      2045      2043      2046
      2046      2047      2046      2054      2046      2048      2054      2055
      2054      2056      2054      2057      2048      2049      2049      2051
      2049      2050      2051      2052      2051      2053      2051      2063
      2063      2064      2063      2065      2063      2066      2066      2067
      2066      2068      2066      2069      2069      2070      2069      2071
      2069      2072      2072      2073      2072      2074      2072      2075
      2075      2076      2075      2077      2075      2078      2078      2079
      2078      2080      2078      2081      2081      2082      2081      2083
      2083      2084      2083      2085      2085      2086      2085      2087
      2085      2088      2088      2089      2088      2090      2088      2091
      2091      2092      2091      2093      2091      2094      2094      2095
      2094      2096      2094      2097      2097      2098      2097      2099
      2097      2100      2100      2101      2100      2102      2100      2103
      2103      2104      2103      2105      2103      2106      2106      2107
      2106      2108      2106      2109      2057      2058      2058      2060
      2058      2059      2060      2061      2060      2062      2060      2110
      2110      2111      2110      2112      2110      2113      2113      2114
      2113      2115      2113      2116      2116      2117      2116      2118
      2116      2119      2119      2120      2119      2121      2119      2122
      2122      2123      2122      2124      2122      2125      2125      2126
      2125      2127      2125      2128      2128      2129      2128      2130
      2130      2131      2130      2132      2132      2133      2132      2134
      2132      2135      2135      2136      2135      2137      2135      2138
      2138      2139      2138      2140      2138      2141      2141      2142
      2141      2143      2141      2144      2144      2145      2144      2146
      2144      2147      2147      2148      2147      2149      2147      2150
      2150      2151      2150      2152      2150      2153      2153      2154
      2153      2155      2153      2156      2157      2161      2157      2165
      2157      2169      2161      2162      2161      2163      2161      2164
      2165      2166      2165      2167      2165      2168      2169      2170
      2169      2171      2169      2172      2157      2158      2158      2159
      2158      2160      2158      2173      2173      2174      2173      2175
      2173      2179      2180      2181      2179      2176      2176      2180
      2176      2177      2176      2178      2181      2182      2181      2183
      2181      2184      2184      2185      2184      2192      2184      2186
      2192      2193      2192      2194      2192      2195      2186      2187
      2187      2189      2187      2188      2189      2190      2189      2191
      2189      2201      2201      2202      2201      2203      2201      2204
      2204      2205      2204      2206      2204      2207      2207      2208
      2207      2209      2207      2210      2210      2211      2210      2212
      2210      2213      2213      2214      2213      2215      2213      2216
      2216      2217      2216      2218      2216      2219      2219      2220
      2219      2221      2221      2222      2221      2223      2223      2224
      2223      2225      2223      2226      2226      2227      2226      2228
      2226      2229      2229      2230      2229      2231      2229      2232
      2232      2233      2232      2234      2232      2235      2235      2236
      2235      2237      2235      2238      2238      2239      2238      2240
      2238      2241      2241      2242      2241      2243      2241      2244
      2244      2245      2244      2246      2244      2247      2195      2196
      2196      2198      2196      2197      2198      2199      2198      2200
      2198      2248      2248      2249      2248      2250      2248      2251
      2251      2252      2251      2253      2251      2254      2254      2255
      2254      2256      2254      2257      2257      2258      2257      2259
      2257      2260      2260      2261      2260      2262      2260      2263
      2263      2264      2263      2265      2263      2266      2266      2267
      2266      2268      2268      2269      2268      2270      2270      2271
      2270      2272      2270      2273      2273      2274      2273      2275
      2273      2276      2276      2277      2276      2278      2276      2279
      2279      2280      2279      2281      2279      2282      2282      2283
      2282      2284      2282      2285      2285      2286      2285      2287
      2285      2288      2288      2289      2288      2290      2288      2291
      2291      2292      2291      2293      2291      2294      2295      2299
      2295      2303      2295      2307      2299      2300      2299      2301
      2299      2302      2303      2304      2303      2305      2303      2306
      2307      2308      2307      2309      2307      2310      2295      2296
      2296      2297      2296      2298      2296      2311      2311      2312
      2311      2313      2311      2317      2318      2319      2317      2314
      2314      2318      2314      2315      2314      2316      2319      2320
      2319      2321      2319      2322      2322      2323      2322      2330
      2322      2324      2330      2331      2330      2332      2330      2333
      2324      2325      2325      2327      2325      2326      2327      2328
      2327      2329      2327      2339      2339      2340      2339      2341
      2339      2342      2342      2343      2342      2344      2342      2345
      2345      2346      2345      2347      2345      2348      2348      2349
      2348      2350      2348      2351      2351      2352      2351      2353
      2351      2354      2354      2355      2354      2356      2354      2357
      2357      2358      2357      2359      2359      2360      2359      2361
      2361      2362      2361      2363      2361      2364      2364      2365
      2364      2366      2364      2367      2367      2368      2367      2369
      2367      2370      2370      2371      2370      2372      2370      2373
      2373      2374      2373      2375      2373      2376      2376      2377
      2376      2378      2376      2379      2379      2380      2379      2381
      2379      2382      2382      2383      2382      2384      2382      2385
      2333      2334      2334      2336      2334      2335      2336      2337
      2336      2338      2336      2386      2386      2387      2386      2388
      2386      2389      2389      2390      2389      2391      2389      2392
      2392      2393      2392      2394      2392      2395      2395      2396
      2395      2397      2395      2398      2398      2399      2398      2400
      2398      2401      2401      2402      2401      2403      2401      2404
      2404      2405      2404      2406      2406      2407      2406      2408
      2408      2409      2408      2410      2408      2411      2411      2412
      2411      2413      2411      2414      2414      2415      2414      2416
      2414      2417      2417      2418      2417      2419      2417      2420
      2420      2421      2420      2422      2420      2423      2423      2424
      2423      2425      2423      2426      2426      2427      2426      2428
      2426      2429      2429      2430      2429      2431      2429      2432
      2433      2437      2433      2441      2433      2445      2437      2438
      2437      2439      2437      2440      2441      2442      2441      2443
      2441      2444      2445      2446      2445      2447      2445      2448
      2433      2434      2434      2435      2434      2436      2434      2449
      2449      2450      2449      2451      2449      2455      2456      2457
      2455      2452      2452      2456      2452      2453      2452      2454
      2457      2458      2457      2459      2457      2460      2460      2461
      2460      2468      2460      2462      2468      2469      2468      2470
      2468      2471      2462      2463      2463      2465      2463      2464
      2465      2466      2465      2467      2465      2477      2477      2478
      2477      2479      2477      2480      2480      2481      2480      2482
      2480      2483      2483      2484      2483      2485      2483      2486
      2486      2487      2486      2488      2486      2489      2489      2490
      2489      2491      2489      2492      2492      2493      2492      2494
      2492      2495      2495      2496      2495      2497      2497      2498
      2497      2499      2499      2500      2499      2501      2499      2502
      2502      2503      2502      2504      2502      2505      2505      2506
      2505      2507      2505      2508      2508      2509      2508      2510
      2508      2511      2511      2512      2511      2513      2511      2514
      2514      2515      2514      2516      2514      2517      2517      2518
      2517      2519      2517      2520      2520      2521      2520      2522
      2520      2523      2471      2472      2472      2474      2472      2473
      2474      2475      2474      2476      2474      2524      2524      2525
      2524      2526      2524      2527      2527      2528      2527      2529
      2527      2530      2530      2531      2530      2532      2530      2533
      2533      2534      2533      2535      2533      2536      2536      2537
      2536      2538      2536      2539      2539      2540      2539      2541
      2539      2542      2542      2543      2542      2544      2544      2545
      2544      2546      2546      2547      2546      2548      2546      2549
      2549      2550      2549      2551      2549      2552      2552      2553
      2552      2554      2552      2555      2555      2556      2555      2557
      2555      2558      2558      2559      2558      2560      2558      2561
      2561      2562      2561      2563      2561      2564      2564      2565
      2564      2566      2564      2567      2567      2568      2567      2569
      2567      2570      2571      2575      2571      2579      2571      2583
      2575      2576      2575      2577      2575      2578      2579      2580
      2579      2581      2579      2582      2583      2584      2583      2585
      2583      2586      2571      2572      2572      2573      2572      2574
      2572      2587      2587      2588      2587      2589      2587      2593
      2594      2595      2593      2590      2590      2594      2590      2591
      2590      2592      2595      2596      2595      2597      2595      2598
      2598      2599      2598      2606      2598      2600      2606      2607
      2606      2608      2606      2609      2600      2601      2601      2603
      2601      2602      2603      2604      2603      2605      2603      2615
      2615      2616      2615      2617      2615      2618      2618      2619
      2618      2620      2618      2621      2621      2622      2621      2623
      2621      2624      2624      2625      2624      2626      2624      2627
      2627      2628      2627      2629      2627      2630      2630      2631
      2630      2632      2630      2633      2633      2634      2633      2635
      2635      2636      2635      2637      2637      2638      2637      2639
      2637      2640      2640      2641      2640      2642      2640      2643
      2643      2644      2643      2645      2643      2646      2646      2647
      2646      2648      2646      2649      2649      2650      2649      2651
      2649      2652      2652      2653      2652      2654      2652      2655
      2655      2656      2655      2657      2655      2658      2658      2659
      2658      2660      2658      2661      2609      2610      2610      2612
      2610      2611      2612      2613      2612      2614      2612      2662
      2662      2663      2662      2664      2662      2665      2665      2666
      2665      2667      2665      2668      2668      2669      2668      2670
      2668      2671      2671      2672      2671      2673      2671      2674
      2674      2675      2674      2676      2674      2677      2677      2678
      2677      2679      2677      2680      2680      2681      2680      2682
      2682      2683      2682      2684      2684      2685      2684      2686
      2684      2687      2687      2688      2687      2689      2687      2690
      2690      2691      2690      2692      2690      2693      2693      2694
      2693      2695      2693      2696      2696      2697      2696      2698
      2696      2699      2699      2700      2699      2701      2699      2702
      2702      2703      2702      2704      2702      2705      2705      2706
      2705      2707      2705      2708      2709      2713      2709      2717
      2709      2721      2713      2714      2713      2715      2713      2716
      2717      2718      2717      2719      2717      2720      2721      2722
      2721      2723      2721      2724      2709      2710      2710      2711
      2710      2712      2710      2725      2725      2726      2725      2727
      2725      2731      2732      2733      2731      2728      2728      2732
      2728      2729      2728      2730      2733      2734      2733      2735
      2733      2736      2736      2737      2736      2744      2736      2738
      2744      2745      2744      2746      2744      2747      2738      2739
      2739      2741      2739      2740      2741      2742      2741      2743
      2741      2753      2753      2754      2753      2755      2753      2756
      2756      2757      2756      2758      2756      2759      2759      2760
      2759      2761      2759      2762      2762      2763      2762      2764
      2762      2765      2765      2766      2765      2767      2765      2768
      2768      2769      2768      2770      2768      2771      2771      2772
      2771      2773      2773      2774      2773      2775      2775      2776
      2775      2777      2775      2778      2778      2779      2778      2780
      2778      2781      2781      2782      2781      2783      2781      2784
      2784      2785      2784      2786      2784      2787      2787      2788
      2787      2789      2787      2790      2790      2791      2790      2792
      2790      2793      2793      2794      2793      2795      2793      2796
      2796      2797      2796      2798      2796      2799      2747      2748
      2748      2750      2748      2749      2750      2751      2750      2752
      2750      2800      2800      2801      2800      2802      2800      2803
      2803      2804      2803      2805      2803      2806      2806      2807
      2806      2808      2806      2809      2809      2810      2809      2811
      2809      2812      2812      2813      2812      2814      2812      2815
      2815      2816      2815      2817      2815      2818      2818      2819
      2818      2820      2820      2821      2820      2822      2822      2823
      2822      2824      2822      2825      2825      2826      2825      2827
      2825      2828      2828      2829      2828      2830      2828      2831
      2831      2832      2831      2833      2831      2834      2834      2835
      2834      2836      2834      2837      2837      2838      2837      2839
      2837      2840      2840      2841      2840      2842      2840      2843
      2843      2844      2843      2845      2843      2846      2847      2851
      2847      2855      2847      2859      2851      2852      2851      2853
      2851      2854      2855      2856      2855      2857      2855      2858
      2859      2860      2859      2861      2859      2862      2847      2848
      2848      2849      2848      2850      2848      2863      2863      2864
      2863      2865      2863      2869      2870      2871      2869      2866
      2866      2870      2866      2867      2866      2868      2871      2872
      2871      2873      2871      2874      2874      2875      2874      2882
      2874      2876      2882      2883      2882      2884      2882      2885
      2876      2877      2877      2879      2877      2878      2879      2880
      2879      2881      2879      2891      2891      2892      2891      2893
      2891      2894      2894      2895      2894      2896      2894      2897
      2897      2898      2897      2899      2897      2900      2900      2901
      2900      2902      2900      2903      2903      2904      2903      2905
      2903      2906      2906      2907      2906      2908      2906      2909
      2909      2910      2909      2911      2911      2912      2911      2913
      2913      2914      2913      2915      2913      2916      2916      2917
      2916      2918      2916      2919      2919      2920      2919      2921
      2919      2922      2922      2923      2922      2924      2922      2925
      2925      2926      2925      2927      2925      2928      2928      2929
      2928      2930      2928      2931      2931      2932      2931      2933
      2931      2934      2934      2935      2934      2936      2934      2937
      2885      2886      2886      2888      2886      2887      2888      2889
      2888      2890      2888      2938      2938      2939      2938      2940
      2938      2941      2941      2942      2941      2943      2941      2944
      2944      2945      2944      2946      2944      2947      2947      2948
      2947      2949      2947      2950      2950      2951      2950      2952
      2950      2953      2953      2954      2953      2955      2953      2956
      2956      2957      2956      2958      2958      2959      2958      2960
      2960      2961      2960      2962      2960      2963      2963      2964
      2963      2965      2963      2966      2966      2967      2966      2968
      2966      2969      2969      2970      2969      2971      2969      2972
      2972      2973      2972      2974      2972      2975      2975      2976
      2975      2977      2975      2978      2978      2979      2978      2980
      2978      2981      2981      2982      2981      2983      2981      2984
      2985      2989      2985      2993      2985      2997      2989      2990
      2989      2991      2989      2992      2993      2994      2993      2995
      2993      2996      2997      2998      2997      2999      2997      3000
      2985      2986      2986      2987      2986      2988      2986      3001
      3001      3002      3001      3003      3001      3007      3008      3009
      3007      3004      3004      3008      3004      3005      3004      3006
      3009      3010      3009      3011      3009      3012      3012      3013
      3012      3020      3012      3014      3020      3021      3020      3022
      3020      3023      3014      3015      3015      3017      3015      3016
      3017      3018      3017      3019      3017      3029      3029      3030
      3029      3031      3029      3032      3032      3033      3032      3034
      3032      3035      3035      3036      3035      3037      3035      3038
      3038      3039      3038      3040      3038      3041      3041      3042
      3041      3043      3041      3044      3044      3045      3044      3046
      3044      3047      3047      3048      3047      3049      3049      3050
      3049      3051      3051      3052      3051      3053      3051      3054
      3054      3055      3054      3056      3054      3057      3057      3058
      3057      3059      3057      3060      3060      3061      3060      3062
      3060      3063      3063      3064      3063      3065      3063      3066
      3066      3067      3066      3068      3066      3069      3069      3070
      3069      3071      3069      3072      3072      3073      3072      3074
      3072      3075      3023      3024      3024      3026      3024      3025
      3026      3027      3026      3028      3026      3076      3076      3077
      3076      3078      3076      3079      3079      3080      3079      3081
      3079      3082      3082      3083      3082      3084      3082      3085
      3085      3086      3085      3087      3085      3088      3088      3089
      3088      3090      3088      3091      3091      3092      3091      3093
      3091      3094      3094      3095      3094      3096      3096      3097
      3096      3098      3098      3099      3098      3100      3098      3101
      3101      3102      3101      3103      3101      3104      3104      3105
      3104      3106      3104      3107      3107      3108      3107      3109
      3107      3110      3110      3111      3110      3112      3110      3113
      3113      3114      3113      3115      3113      3116      3116      3117
      3116      3118      3116      3119      3119      3120      3119      3121
      3119      3122      3123      3127      3123      3131      3123      3135
      3127      3128      3127      3129      3127      3130      3131      3132
      3131      3133      3131      3134      3135      3136      3135      3137
      3135      3138      3123      3124      3124      3125      3124      3126
      3124      3139      3139      3140      3139      3141      3139      3145
      3146      3147      3145      3142      3142      3146      3142      3143
      3142      3144      3147      3148      3147      3149      3147      3150
      3150      3151      3150      3158      3150      3152      3158      3159
      3158      3160      3158      3161      3152      3153      3153      3155
      3153      3154      3155      3156      3155      3157      3155      3167
      3167      3168      3167      3169      3167      3170      3170      3171
      3170      3172      3170      3173      3173      3174      3173      3175
      3173      3176      3176      3177      3176      3178      3176      3179
      3179      3180      3179      3181      3179      3182      3182      3183
      3182      3184      3182      3185      3185      3186      3185      3187
      3187      3188      3187      3189      3189      3190      3189      3191
      3189      3192      3192      3193      3192      3194      3192      3195
      3195      3196      3195      3197      3195      3198      3198      3199
      3198      3200      3198      3201      3201      3202      3201      3203
      3201      3204      3204      3205      3204      3206      3204      3207
      3207      3208      3207      3209      3207      3210      3210      3211
      3210      3212      3210      3213      3161      3162      3162      3164
      3162      3163      3164      3165      3164      3166      3164      3214
      3214      3215      3214      3216      3214      3217      3217      3218
      3217      3219      3217      3220      3220      3221      3220      3222
      3220      3223      3223      3224      3223      3225      3223      3226
      3226      3227      3226      3228      3226      3229      3229      3230
      3229      3231      3229      3232      3232      3233      3232      3234
      3234      3235      3234      3236      3236      3237      3236      3238
      3236      3239      3239      3240      3239      3241      3239      3242
      3242      3243      3242      3244      3242      3245      3245      3246
      3245      3247      3245      3248      3248      3249      3248      3250
      3248      3251      3251      3252      3251      3253      3251      3254
      3254      3255      3254      3256      3254      3257      3257      3258
      3257      3259      3257      3260      3261      3265      3261      3269
      3261      3273      3265      3266      3265      3267      3265      3268
      3269      3270      3269      3271      3269      3272      3273      3274
      3273      3275      3273      3276      3261      3262      3262      3263
      3262      3264      3262      3277      3277      3278      3277      3279
      3277      3283      3284      3285      3283      3280      3280      3284
      3280      3281      3280      3282      3285      3286      3285      3287
      3285      3288      3288      3289      3288      3296      3288      3290
      3296      3297      3296      3298      3296      3299      3290      3291
      3291      3293      3291      3292      3293      3294      3293      3295
      3293      3305      3305      3306      3305      3307      3305      3308
      3308      3309      3308      3310      3308      3311      3311      3312
      3311      3313      3311      3314      3314      3315      3314      3316
      3314      3317      3317      3318      3317      3319      3317      3320
      3320      3321      3320      3322      3320      3323      3323      3324
      3323      3325      3325      3326      3325      3327      3327      3328
      3327      3329      3327      3330      3330      3331      3330      3332
      3330      3333      3333      3334      3333      3335      3333      3336
      3336      3337      3336      3338      3336      3339      3339      3340
      3339      3341      3339      3342      3342      3343      3342      3344
      3342      3345      3345      3346      3345      3347      3345      3348
      3348      3349      3348      3350      3348      3351      3299      3300
      3300      3302      3300      3301      3302      3303      3302      3304
      3302      3352      3352      3353      3352      3354      3352      3355
      3355      3356      3355      3357      3355      3358      3358      3359
      3358      3360      3358      3361      3361      3362      3361      3363
      3361      3364      3364      3365      3364      3366      3364      3367
      3367      3368      3367      3369      3367      3370      3370      3371
      3370      3372      3372      3373      3372      3374      3374      3375
      3374      3376      3374      3377      3377      3378      3377      3379
      3377      3380      3380      3381      3380      3382      3380      3383
      3383      3384      3383      3385      3383      3386      3386      3387
      3386      3388      3386      3389      3389      3390      3389      3391
      3389      3392      3392      3393      3392      3394      3392      3395
      3395      3396      3395      3397      3395      3398      3399      3403
      3399      3407      3399      3411      3403      3404      3403      3405
      3403      3406      3407      3408      3407      3409      3407      3410
      3411      3412      3411      3413      3411      3414      3399      3400
      3400      3401      3400      3402      3400      3415      3415      3416
      3415      3417      3415      3421      3422      3423      3421      3418
      3418      3422      3418      3419      3418      3420      3423      3424
      3423      3425      3423      3426      3426      3427      3426      3434
      3426      3428      3434      3435      3434      3436      3434      3437
      3428      3429      3429      3431      3429      3430      3431      3432
      3431      3433      3431      3443      3443      3444      3443      3445
      3443      3446      3446      3447      3446      3448      3446      3449
      3449      3450      3449      3451      3449      3452      3452      3453
      3452      3454      3452      3455      3455      3456      3455      3457
      3455      3458      3458      3459      3458      3460      3458      3461
      3461      3462      3461      3463      3463      3464      3463      3465
      3465      3466      3465      3467      3465      3468      3468      3469
      3468      3470      3468      3471      3471      3472      3471      3473
      3471      3474      3474      3475      3474      3476      3474      3477
      3477      3478      3477      3479      3477      3480      3480      3481
      3480      3482      3480      3483      3483      3484      3483      3485
      3483      3486      3486      3487      3486      3488      3486      3489
      3437      3438      3438      3440      3438      3439      3440      3441
      3440      3442      3440      3490      3490      3491      3490      3492
      3490      3493      3493      3494      3493      3495      3493      3496
      3496      3497      3496      3498      3496      3499      3499      3500
      3499      3501      3499      3502      3502      3503      3502      3504
      3502      3505      3505      3506      3505      3507      3505      3508
      3508      3509      3508      3510      3510      3511      3510      3512
      3512      3513      3512      3514      3512      3515      3515      3516
      3515      3517      3515      3518      3518      3519      3518      3520
      3518      3521      3521      3522      3521      3523      3521      3524
      3524      3525      3524      3526      3524      3527      3527      3528
      3527      3529      3527      3530      3530      3531      3530      3532
      3530      3533      3533      3534      3533      3535      3533      3536
      3537      3541      3537      3545      3537      3549      3541      3542
      3541      3543      3541      3544      3545      3546      3545      3547
      3545      3548      3549      3550      3549      3551      3549      3552
      3537      3538      3538      3539      3538      3540      3538      3553
      3553      3554      3553      3555      3553      3559      3560      3561
      3559      3556      3556      3560      3556      3557      3556      3558
      3561      3562      3561      3563      3561      3564      3564      3565
      3564      3572      3564      3566      3572      3573      3572      3574
      3572      3575      3566      3567      3567      3569      3567      3568
      3569      3570      3569      3571      3569      3581      3581      3582
      3581      3583      3581      3584      3584      3585      3584      3586
      3584      3587      3587      3588      3587      3589      3587      3590
      3590      3591      3590      3592      3590      3593      3593      3594
      3593      3595      3593      3596      3596      3597      3596      3598
      3596      3599      3599      3600      3599      3601      3601      3602
      3601      3603      3603      3604      3603      3605      3603      3606
      3606      3607      3606      3608      3606      3609      3609      3610
      3609      3611      3609      3612      3612      3613      3612      3614
      3612      3615      3615      3616      3615      3617      3615      3618
      3618      3619      3618      3620      3618      3621      3621      3622
      3621      3623      3621      3624      3624      3625      3624      3626
      3624      3627      3575      3576      3576      3578      3576      3577
      3578      3579      3578      3580      3578      3628      3628      3629
      3628      3630      3628      3631      3631      3632      3631      3633
      3631      3634      3634      3635      3634      3636      3634      3637
      3637      3638      3637      3639      3637      3640      3640      3641
      3640      3642      3640      3643      3643      3644      3643      3645
      3643      3646      3646      3647      3646      3648      3648      3649
      3648      3650      3650      3651      3650      3652      3650      3653
      3653      3654      3653      3655      3653      3656      3656      3657
      3656      3658      3656      3659      3659      3660      3659      3661
      3659      3662      3662      3663      3662      3664      3662      3665
      3665      3666      3665      3667      3665      3668      3668      3669
      3668      3670      3668      3671      3671      3672      3671      3673
      3671      3674      3675      3679      3675      3683      3675      3687
      3679      3680      3679      3681      3679      3682      3683      3684
      3683      3685      3683      3686      3687      3688      3687      3689
      3687      3690      3675      3676      3676      3677      3676      3678
      3676      3691      3691      3692      3691      3693      3691      3697
      3698      3699      3697      3694      3694      3698      3694      3695
      3694      3696      3699      3700      3699      3701      3699      3702
      3702      3703      3702      3710      3702      3704      3710      3711
      3710      3712      3710      3713      3704      3705      3705      3707
      3705      3706      3707      3708      3707      3709      3707      3719
      3719      3720      3719      3721      3719      3722      3722      3723
      3722      3724      3722      3725      3725      3726      3725      3727
      3725      3728      3728      3729      3728      3730      3728      3731
      3731      3732      3731      3733      3731      3734      3734      3735
      3734      3736      3734      3737      3737      3738      3737      3739
      3739      3740      3739      3741      3741      3742      3741      3743
      3741      3744      3744      3745      3744      3746      3744      3747
      3747      3748      3747      3749      3747      3750      3750      3751
      3750      3752      3750      3753      3753      3754      3753      3755
      3753      3756      3756      3757      3756      3758      3756      3759
      3759      3760      3759      3761      3759      3762      3762      3763
      3762      3764      3762      3765      3713      3714      3714      3716
      3714      3715      3716      3717      3716      3718      3716      3766
      3766      3767      3766      3768      3766      3769      3769      3770
      3769      3771      3769      3772      3772      3773      3772      3774
      3772      3775      3775      3776      3775      3777      3775      3778
      3778      3779      3778      3780      3778      3781      3781      3782
      3781      3783      3781      3784      3784      3785      3784      3786
      3786      3787      3786      3788      3788      3789      3788      3790
      3788      3791      3791      3792      3791      3793      3791      3794
      3794      3795      3794      3796      3794      3797      3797      3798
      3797      3799      3797      3800      3800      3801      3800      3802
      3800      3803      3803      3804      3803      3805      3803      3806
      3806      3807      3806      3808      3806      3809      3809      3810
      3809      3811      3809      3812      3813      3817      3813      3821
      3813      3825      3817      3818      3817      3819      3817      3820
      3821      3822      3821      3823      3821      3824      3825      3826
      3825      3827      3825      3828      3813      3814      3814      3815
      3814      3816      3814      3829      3829      3830      3829      3831
      3829      3835      3836      3837      3835      3832      3832      3836
      3832      3833      3832      3834      3837      3838      3837      3839
      3837      3840      3840      3841      3840      3848      3840      3842
      3848      3849      3848      3850      3848      3851      3842      3843
      3843      3845      3843      3844      3845      3846      3845      3847
      3845      3857      3857      3858      3857      3859      3857      3860
      3860      3861      3860      3862      3860      3863      3863      3864
      3863      3865      3863      3866      3866      3867      3866      3868
      3866      3869      3869      3870      3869      3871      3869      3872
      3872      3873      3872      3874      3872      3875      3875      3876
      3875      3877      3877      3878      3877      3879      3879      3880
      3879      3881      3879      3882      3882      3883      3882      3884
      3882      3885      3885      3886      3885      3887      3885      3888
      3888      3889      3888      3890      3888      3891      3891      3892
      3891      3893      3891      3894      3894      3895      3894      3896
      3894      3897      3897      3898      3897      3899      3897      3900
      3900      3901      3900      3902      3900      3903      3851      3852
      3852      3854      3852      3853      3854      3855      3854      3856
      3854      3904      3904      3905      3904      3906      3904      3907
      3907      3908      3907      3909      3907      3910      3910      3911
      3910      3912      3910      3913      3913      3914      3913      3915
      3913      3916      3916      3917      3916      3918      3916      3919
      3919      3920      3919      3921      3919      3922      3922      3923
      3922      3924      3924      3925      3924      3926      3926      3927
      3926      3928      3926      3929      3929      3930      3929      3931
      3929      3932      3932      3933      3932      3934      3932      3935
      3935      3936      3935      3937      3935      3938      3938      3939
      3938      3940      3938      3941      3941      3942      3941      3943
      3941      3944      3944      3945      3944      3946      3944      3947
      3947      3948      3947      3949      3947      3950      3951      3955
      3951      3959      3951      3963      3955      3956      3955      3957
      3955      3958      3959      3960      3959      3961      3959      3962
      3963      3964      3963      3965      3963      3966      3951      3952
      3952      3953      3952      3954      3952      3967      3967      3968
      3967      3969      3967      3973      3974      3975      3973      3970
      3970      3974      3970      3971      3970      3972      3975      3976
      3975      3977      3975      3978      3978      3979      3978      3986
      3978      3980      3986      3987      3986      3988      3986      3989
      3980      3981      3981      3983      3981      3982      3983      3984
      3983      3985      3983      3995      3995      3996      3995      3997
      3995      3998      3998      3999      3998      4000      3998      4001
      4001      4002      4001      4003      4001      4004      4004      4005
      4004      4006      4004      4007      4007      4008      4007      4009
      4007      4010      4010      4011      4010      4012      4010      4013
      4013      4014      4013      4015      4015      4016      4015      4017
      4017      4018      4017      4019      4017      4020      4020      4021
      4020      4022      4020      4023      4023      4024      4023      4025
      4023      4026      4026      4027      4026      4028      4026      4029
      4029      4030      4029      4031      4029      4032      4032      4033
      4032      4034      4032      4035      4035      4036      4035      4037
      4035      4038      4038      4039      4038      4040      4038      4041
      3989      3990      3990      3992      3990      3991      3992      3993
      3992      3994      3992      4042      4042      4043      4042      4044
      4042      4045      4045      4046      4045      4047      4045      4048
      4048      4049      4048      4050      4048      4051      4051      4052
      4051      4053      4051      4054      4054      4055      4054      4056
      4054      4057      4057      4058      4057      4059      4057      4060
      4060      4061      4060      4062      4062      4063      4062      4064
      4064      4065      4064      4066      4064      4067      4067      4068
      4067      4069      4067      4070      4070      4071      4070      4072
      4070      4073      4073      4074      4073      4075      4073      4076
      4076      4077      4076      4078      4076      4079      4079      4080
      4079      4081      4079      4082      4082      4083      4082      4084
      4082      4085      4085      4086      4085      4087      4085      4088
      4089      4093      4089      4097      4089      4101      4093      4094
      4093      4095      4093      4096      4097      4098      4097      4099
      4097      4100      4101      4102      4101      4103      4101      4104
      4089      4090      4090      4091      4090      4092      4090      4105
      4105      4106      4105      4107      4105      4111      4112      4113
      4111      4108      4108      4112      4108      4109      4108      4110
      4113      4114      4113      4115      4113      4116      4116      4117
      4116      4124      4116      4118      4124      4125      4124      4126
      4124      4127      4118      4119      4119      4121      4119      4120
      4121      4122      4121      4123      4121      4133      4133      4134
      4133      4135      4133      4136      4136      4137      4136      4138
      4136      4139      4139      4140      4139      4141      4139      4142
      4142      4143      4142      4144      4142      4145      4145      4146
      4145      4147      4145      4148      4148      4149      4148      4150
      4148      4151      4151      4152      4151      4153      4153      4154
      4153      4155      4155      4156      4155      4157      4155      4158
      4158      4159      4158      4160      4158      4161      4161      4162
      4161      4163      4161      4164      4164      4165      4164      4166
      4164      4167      4167      4168      4167      4169      4167      4170
      4170      4171      4170      4172      4170      4173      4173      4174
      4173      4175      4173      4176      4176      4177      4176      4178
      4176      4179      4127      4128      4128      4130      4128      4129
      4130      4131      4130      4132      4130      4180      4180      4181
      4180      4182      4180      4183      4183      4184      4183      4185
      4183      4186      4186      4187      4186      4188      4186      4189
      4189      4190      4189      4191      4189      4192      4192      4193
      4192      4194      4192      4195      4195      4196      4195      4197
      4195      4198      4198      4199      4198      4200      4200      4201
      4200      4202      4202      4203      4202      4204      4202      4205
      4205      4206      4205      4207      4205      4208      4208      4209
      4208      4210      4208      4211      4211      4212      4211      4213
      4211      4214      4214      4215      4214      4216      4214      4217
      4217      4218      4217      4219      4217      4220      4220      4221
      4220      4222      4220      4223      4223      4224      4223      4225
      4223      4226      4227      4231      4227      4235      4227      4239
      4231      4232      4231      4233      4231      4234      4235      4236
      4235      4237      4235      4238      4239      4240      4239      4241
      4239      4242      4227      4228      4228      4229      4228      4230
      4228      4243      4243      4244      4243      4245      4243      4249
      4250      4251      4249      4246      4246      4250      4246      4247
      4246      4248      4251      4252      4251      4253      4251      4254
      4254      4255      4254      4262      4254      4256      4262      4263
      4262      4264      4262      4265      4256      4257      4257      4259
      4257      4258      4259      4260      4259      4261      4259      4271
      4271      4272      4271      4273      4271      4274      4274      4275
      4274      4276      4274      4277      4277      4278      4277      4279
      4277      4280      4280      4281      4280      4282      4280      4283
      4283      4284      4283      4285      4283      4286      4286      4287
      4286      4288      4286      4289      4289      4290      4289      4291
      4291      4292      4291      4293      4293      4294      4293      4295
      4293      4296      4296      4297      4296      4298      4296      4299
      4299      4300      4299      4301      4299      4302      4302      4303
      4302      4304      4302      4305      4305      4306      4305      4307
      4305      4308      4308      4309      4308      4310      4308      4311
      4311      4312      4311      4313      4311      4314      4314      4315
      4314      4316      4314      4317      4265      4266      4266      4268
      4266      4267      4268      4269      4268      4270      4268      4318
      4318      4319      4318      4320      4318      4321      4321      4322
      4321      4323      4321      4324      4324      4325      4324      4326
      4324      4327      4327      4328      4327      4329      4327      4330
      4330      4331      4330      4332      4330      4333      4333      4334
      4333      4335      4333      4336      4336      4337      4336      4338
      4338      4339      4338      4340      4340      4341      4340      4342
      4340      4343      4343      4344      4343      4345      4343      4346
      4346      4347      4346      4348      4346      4349      4349      4350
      4349      4351      4349      4352      4352      4353      4352      4354
      4352      4355      4355      4356      4355      4357      4355      4358
      4358      4359      4358      4360      4358      4361      4361      4362
      4361      4363      4361      4364      4365      4369      4365      4373
      4365      4377      4369      4370      4369      4371      4369      4372
      4373      4374      4373      4375      4373      4376      4377      4378
      4377      4379      4377      4380      4365      4366      4366      4367
      4366      4368      4366      4381      4381      4382      4381      4383
      4381      4387      4388      4389      4387      4384      4384      4388
      4384      4385      4384      4386      4389      4390      4389      4391
      4389      4392      4392      4393      4392      4400      4392      4394
      4400      4401      4400      4402      4400      4403      4394      4395
      4395      4397      4395      4396      4397      4398      4397      4399
      4397      4409      4409      4410      4409      4411      4409      4412
      4412      4413      4412      4414      4412      4415      4415      4416
      4415      4417      4415      4418      4418      4419      4418      4420
      4418      4421      4421      4422      4421      4423      4421      4424
      4424      4425      4424      4426      4424      4427      4427      4428
      4427      4429      4429      4430      4429      4431      4431      4432
      4431      4433      4431      4434      4434      4435      4434      4436
      4434      4437      4437      4438      4437      4439      4437      4440
      4440      4441      4440      4442      4440      4443      4443      4444
      4443      4445      4443      4446      4446      4447      4446      4448
      4446      4449      4449      4450      4449      4451      4449      4452
      4452      4453      4452      4454      4452      4455      4403      4404
      4404      4406      4404      4405      4406      4407      4406      4408
      4406      4456      4456      4457      4456      4458      4456      4459
      4459      4460      4459      4461      4459      4462      4462      4463
      4462      4464      4462      4465      4465      4466      4465      4467
      4465      4468      4468      4469      4468      4470      4468      4471
      4471      4472      4471      4473      4471      4474      4474      4475
      4474      4476      4476      4477      4476      4478      4478      4479
      4478      4480      4478      4481      4481      4482      4481      4483
      4481      4484      4484      4485      4484      4486      4484      4487
      4487      4488      4487      4489      4487      4490      4490      4491
      4490      4492      4490      4493      4493      4494      4493      4495
      4493      4496      4496      4497      4496      4498      4496      4499
      4499      4500      4499      4501      4499      4502      4503      4507
      4503      4511      4503      4515      4507      4508      4507      4509
      4507      4510      4511      4512      4511      4513      4511      4514
      4515      4516      4515      4517      4515      4518      4503      4504
      4504      4505      4504      4506      4504      4519      4519      4520
      4519      4521      4519      4525      4526      4527      4525      4522
      4522      4526      4522      4523      4522      4524      4527      4528
      4527      4529      4527      4530      4530      4531      4530      4538
      4530      4532      4538      4539      4538      4540      4538      4541
      4532      4533      4533      4535      4533      4534      4535      4536
      4535      4537      4535      4547      4547      4548      4547      4549
      4547      4550      4550      4551      4550      4552      4550      4553
      4553      4554      4553      4555      4553      4556      4556      4557
      4556      4558      4556      4559      4559      4560      4559      4561
      4559      4562      4562      4563      4562      4564      4562      4565
      4565      4566      4565      4567      4567      4568      4567      4569
      4569      4570      4569      4571      4569      4572      4572      4573
      4572      4574      4572      4575      4575      4576      4575      4577
      4575      4578      4578      4579      4578      4580      4578      4581
      4581      4582      4581      4583      4581      4584      4584      4585
      4584      4586      4584      4587      4587      4588      4587      4589
      4587      4590      4590      4591      4590      4592      4590      4593
      4541      4542      4542      4544      4542      4543      4544      4545
      4544      4546      4544      4594      4594      4595      4594      4596
      4594      4597      4597      4598      4597      4599      4597      4600
      4600      4601      4600      4602      4600      4603      4603      4604
      4603      4605      4603      4606      4606      4607      4606      4608
      4606      4609      4609      4610      4609      4611      4609      4612
      4612      4613      4612      4614      4614      4615      4614      4616
      4616      4617      4616      4618      4616      4619      4619      4620
      4619      4621      4619      4622      4622      4623      4622      4624
      4622      4625      4625      4626      4625      4627      4625      4628
      4628      4629      4628      4630      4628      4631      4631      4632
      4631      4633      4631      4634      4634      4635      4634      4636
      4634      4637      4637      4638      4637      4639      4637      4640
      4641      4645      4641      4649      4641      4653      4645      4646
      4645      4647      4645      4648      4649      4650      4649      4651
      4649      4652      4653      4654      4653      4655      4653      4656
      4641      4642      4642      4643      4642      4644      4642      4657
      4657      4658      4657      4659      4657      4663      4664      4665
      4663      4660      4660      4664      4660      4661      4660      4662
      4665      4666      4665      4667      4665      4668      4668      4669
      4668      4676      4668      4670      4676      4677      4676      4678
      4676      4679      4670      4671      4671      4673      4671      4672
      4673      4674      4673      4675      4673      4685      4685      4686
      4685      4687      4685      4688      4688      4689      4688      4690
      4688      4691      4691      4692      4691      4693      4691      4694
      4694      4695      4694      4696      4694      4697      4697      4698
      4697      4699      4697      4700      4700      4701      4700      4702
      4700      4703      4703      4704      4703      4705      4705      4706
      4705      4707      4707      4708      4707      4709      4707      4710
      4710      4711      4710      4712      4710      4713      4713      4714
      4713      4715      4713      4716      4716      4717      4716      4718
      4716      4719      4719      4720      4719      4721      4719      4722
      4722      4723      4722      4724      4722      4725      4725      4726
      4725      4727      4725      4728      4728      4729      4728      4730
      4728      4731      4679      4680      4680      4682      4680      4681
      4682      4683      4682      4684      4682      4732      4732      4733
      4732      4734      4732      4735      4735      4736      4735      4737
      4735      4738      4738      4739      4738      4740      4738      4741
      4741      4742      4741      4743      4741      4744      4744      4745
      4744      4746      4744      4747      4747      4748      4747      4749
      4747      4750      4750      4751      4750      4752      4752      4753
      4752      4754      4754      4755      4754      4756      4754      4757
      4757      4758      4757      4759      4757      4760      4760      4761
      4760      4762      4760      4763      4763      4764      4763      4765
      4763      4766      4766      4767      4766      4768      4766      4769
      4769      4770      4769      4771      4769      4772      4772      4773
      4772      4774      4772      4775      4775      4776      4775      4777
      4775      4778      4779      4783      4779      4787      4779      4791
      4783      4784      4783      4785      4783      4786      4787      4788
      4787      4789      4787      4790      4791      4792      4791      4793
      4791      4794      4779      4780      4780      4781      4780      4782
      4780      4795      4795      4796      4795      4797      4795      4801
      4802      4803      4801      4798      4798      4802      4798      4799
      4798      4800      4803      4804      4803      4805      4803      4806
      4806      4807      4806      4814      4806      4808      4814      4815
      4814      4816      4814      4817      4808      4809      4809      4811
      4809      4810      4811      4812      4811      4813      4811      4823
      4823      4824      4823      4825      4823      4826      4826      4827
      4826      4828      4826      4829      4829      4830      4829      4831
      4829      4832      4832      4833      4832      4834      4832      4835
      4835      4836      4835      4837      4835      4838      4838      4839
      4838      4840      4838      4841      4841      4842      4841      4843
      4843      4844      4843      4845      4845      4846      4845      4847
      4845      4848      4848      4849      4848      4850      4848      4851
      4851      4852      4851      4853      4851      4854      4854      4855
      4854      4856      4854      4857      4857      4858      4857      4859
      4857      4860      4860      4861      4860      4862      4860      4863
      4863      4864      4863      4865      4863      4866      4866      4867
      4866      4868      4866      4869      4817      4818      4818      4820
      4818      4819      4820      4821      4820      4822      4820      4870
      4870      4871      4870      4872      4870      4873      4873      4874
      4873      4875      4873      4876      4876      4877      4876      4878
      4876      4879      4879      4880      4879      4881      4879      4882
      4882      4883      4882      4884      4882      4885      4885      4886
      4885      4887      4885      4888      4888      4889      4888      4890
      4890      4891      4890      4892      4892      4893      4892      4894
      4892      4895      4895      4896      4895      4897      4895      4898
      4898      4899      4898      4900      4898      4901      4901      4902
      4901      4903      4901      4904      4904      4905      4904      4906
      4904      4907      4907      4908      4907      4909      4907      4910
      4910      4911      4910      4912      4910      4913      4913      4914
      4913      4915      4913      4916      4917      4921      4917      4925
      4917      4929      4921      4922      4921      4923      4921      4924
      4925      4926      4925      4927      4925      4928      4929      4930
      4929      4931      4929      4932      4917      4918      4918      4919
      4918      4920      4918      4933      4933      4934      4933      4935
      4933      4939      4940      4941      4939      4936      4936      4940
      4936      4937      4936      4938      4941      4942      4941      4943
      4941      4944      4944      4945      4944      4952      4944      4946
      4952      4953      4952      4954      4952      4955      4946      4947
      4947      4949      4947      4948      4949      4950      4949      4951
      4949      4961      4961      4962      4961      4963      4961      4964
      4964      4965      4964      4966      4964      4967      4967      4968
      4967      4969      4967      4970      4970      4971      4970      4972
      4970      4973      4973      4974      4973      4975      4973      4976
      4976      4977      4976      4978      4976      4979      4979      4980
      4979      4981      4981      4982      4981      4983      4983      4984
      4983      4985      4983      4986      4986      4987      4986      4988
      4986      4989      4989      4990      4989      4991      4989      4992
      4992      4993      4992      4994      4992      4995      4995      4996
      4995      4997      4995      4998      4998      4999      4998      5000
      4998      5001      5001      5002      5001      5003      5001      5004
      5004      5005      5004      5006      5004      5007      4955      4956
      4956      4958      4956      4957      4958      4959      4958      4960
      4958      5008      5008      5009      5008      5010      5008      5011
      5011      5012      5011      5013      5011      5014      5014      5015
      5014      5016      5014      5017      5017      5018      5017      5019
      5017      5020      5020      5021      5020      5022      5020      5023
      5023      5024      5023      5025      5023      5026      5026      5027
      5026      5028      5028      5029      5028      5030      5030      5031
      5030      5032      5030      5033      5033      5034      5033      5035
      5033      5036      5036      5037      5036      5038      5036      5039
      5039      5040      5039      5041      5039      5042      5042      5043
      5042      5044      5042      5045      5045      5046      5045      5047
      5045      5048      5048      5049      5048      5050      5048      5051
      5051      5052      5051      5053      5051      5054      5055      5059
      5055      5063      5055      5067      5059      5060      5059      5061
      5059      5062      5063      5064      5063      5065      5063      5066
      5067      5068      5067      5069      5067      5070      5055      5056
      5056      5057      5056      5058      5056      5071      5071      5072
      5071      5073      5071      5077      5078      5079      5077      5074
      5074      5078      5074      5075      5074      5076      5079      5080
      5079      5081      5079      5082      5082      5083      5082      5090
      5082      5084      5090      5091      5090      5092      5090      5093
      5084      5085      5085      5087      5085      5086      5087      5088
      5087      5089      5087      5099      5099      5100      5099      5101
      5099      5102      5102      5103      5102      5104      5102      5105
      5105      5106      5105      5107      5105      5108      5108      5109
      5108      5110      5108      5111      5111      5112      5111      5113
      5111      5114      5114      5115      5114      5116      5114      5117
      5117      5118      5117      5119      5119      5120      5119      5121
      5121      5122      5121      5123      5121      5124      5124      5125
      5124      5126      5124      5127      5127      5128      5127      5129
      5127      5130      5130      5131      5130      5132      5130      5133
      5133      5134      5133      5135      5133      5136      5136      5137
      5136      5138      5136      5139      5139      5140      5139      5141
      5139      5142      5142      5143      5142      5144      5142      5145
      5093      5094      5094      5096      5094      5095      5096      5097
      5096      5098      5096      5146      5146      5147      5146      5148
      5146      5149      5149      5150      5149      5151      5149      5152
      5152      5153      5152      5154      5152      5155      5155      5156
      5155      5157      5155      5158      5158      5159      5158      5160
      5158      5161      5161      5162      5161      5163      5161      5164
      5164      5165      5164      5166      5166      5167      5166      5168
      5168      5169      5168      5170      5168      5171      5171      5172
      5171      5173      5171      5174      5174      5175      5174      5176
      5174      5177      5177      5178      5177      5179      5177      5180
      5180      5181      5180      5182      5180      5183      5183      5184
      5183      5185      5183      5186      5186      5187      5186      5188
      5186      5189      5189      5190      5189      5191      5189      5192
      5193      5197      5193      5201      5193      5205      5197      5198
      5197      5199      5197      5200      5201      5202      5201      5203
      5201      5204      5205      5206      5205      5207      5205      5208
      5193      5194      5194      5195      5194      5196      5194      5209
      5209      5210      5209      5211      5209      5215      5216      5217
      5215      5212      5212      5216      5212      5213      5212      5214
      5217      5218      5217      5219      5217      5220      5220      5221
      5220      5228      5220      5222      5228      5229      5228      5230
      5228      5231      5222      5223      5223      5225      5223      5224
      5225      5226      5225      5227      5225      5237      5237      5238
      5237      5239      5237      5240      5240      5241      5240      5242
      5240      5243      5243      5244      5243      5245      5243      5246
      5246      5247      5246      5248      5246      5249      5249      5250
      5249      5251      5249      5252      5252      5253      5252      5254
      5252      5255      5255      5256      5255      5257      5257      5258
      5257      5259      5259      5260      5259      5261      5259      5262
      5262      5263      5262      5264      5262      5265      5265      5266
      5265      5267      5265      5268      5268      5269      5268      5270
      5268      5271      5271      5272      5271      5273      5271      5274
      5274      5275      5274      5276      5274      5277      5277      5278
      5277      5279      5277      5280      5280      5281      5280      5282
      5280      5283      5231      5232      5232      5234      5232      5233
      5234      5235      5234      5236      5234      5284      5284      5285
      5284      5286      5284      5287      5287      5288      5287      5289
      5287      5290      5290      5291      5290      5292      5290      5293
      5293      5294      5293      5295      5293      5296      5296      5297
      5296      5298      5296      5299      5299      5300      5299      5301
      5299      5302      5302      5303      5302      5304      5304      5305
      5304      5306      5306      5307      5306      5308      5306      5309
      5309      5310      5309      5311      5309      5312      5312      5313
      5312      5314      5312      5315      5315      5316      5315      5317
      5315      5318      5318      5319      5318      5320      5318      5321
      5321      5322      5321      5323      5321      5324      5324      5325
      5324      5326      5324      5327      5327      5328      5327      5329
      5327      5330      5331      5335      5331      5339      5331      5343
      5335      5336      5335      5337      5335      5338      5339      5340
      5339      5341      5339      5342      5343      5344      5343      5345
      5343      5346      5331      5332      5332      5333      5332      5334
      5332      5347      5347      5348      5347      5349      5347      5353
      5354      5355      5353      5350      5350      5354      5350      5351
      5350      5352      5355      5356      5355      5357      5355      5358
      5358      5359      5358      5366      5358      5360      5366      5367
      5366      5368      5366      5369      5360      5361      5361      5363
      5361      5362      5363      5364      5363      5365      5363      5375
      5375      5376      5375      5377      5375      5378      5378      5379
      5378      5380      5378      5381      5381      5382      5381      5383
      5381      5384      5384      5385      5384      5386      5384      5387
      5387      5388      5387      5389      5387      5390      5390      5391
      5390      5392      5390      5393      5393      5394      5393      5395
      5395      5396      5395      5397      5397      5398      5397      5399
      5397      5400      5400      5401      5400      5402      5400      5403
      5403      5404      5403      5405      5403      5406      5406      5407
      5406      5408      5406      5409      5409      5410      5409      5411
      5409      5412      5412      5413      5412      5414      5412      5415
      5415      5416      5415      5417      5415      5418      5418      5419
      5418      5420      5418      5421      5369      5370      5370      5372
      5370      5371      5372      5373      5372      5374      5372      5422
      5422      5423      5422      5424      5422      5425      5425      5426
      5425      5427      5425      5428      5428      5429      5428      5430
      5428      5431      5431      5432      5431      5433      5431      5434
      5434      5435      5434      5436      5434      5437      5437      5438
      5437      5439      5437      5440      5440      5441      5440      5442
      5442      5443      5442      5444      5444      5445      5444      5446
      5444      5447      5447      5448      5447      5449      5447      5450
      5450      5451      5450      5452      5450      5453      5453      5454
      5453      5455      5453      5456      5456      5457      5456      5458
      5456      5459      5459      5460      5459      5461      5459      5462
      5462      5463      5462      5464      5462      5465      5465      5466
      5465      5467      5465      5468      5469      5473      5469      5477
      5469      5481      5473      5474      5473      5475      5473      5476
      5477      5478      5477      5479      5477      5480      5481      5482
      5481      5483      5481      5484      5469      5470      5470      5471
      5470      5472      5470      5485      5485      5486      5485      5487
      5485      5491      5492      5493      5491      5488      5488      5492
      5488      5489      5488      5490      5493      5494      5493      5495
      5493      5496      5496      5497      5496      5504      5496      5498
      5504      5505      5504      5506      5504      5507      5498      5499
      5499      5501      5499      5500      5501      5502      5501      5503
      5501      5513      5513      5514      5513      5515      5513      5516
      5516      5517      5516      5518      5516      5519      5519      5520
      5519      5521      5519      5522      5522      5523      5522      5524
      5522      5525      5525      5526      5525      5527      5525      5528
      5528      5529      5528      5530      5528      5531      5531      5532
      5531      5533      5533      5534      5533      5535      5535      5536
      5535      5537      5535      5538      5538      5539      5538      5540
      5538      5541      5541      5542      5541      5543      5541      5544
      5544      5545      5544      5546      5544      5547      5547      5548
      5547      5549      5547      5550      5550      5551      5550      5552
      5550      5553      5553      5554      5553      5555      5553      5556
      5556      5557      5556      5558      5556      5559      5507      5508
      5508      5510      5508      5509      5510      5511      5510      5512
      5510      5560      5560      5561      5560      5562      5560      5563
      5563      5564      5563      5565      5563      5566      5566      5567
      5566      5568      5566      5569      5569      5570      5569      5571
      5569      5572      5572      5573      5572      5574      5572      5575
      5575      5576      5575      5577      5575      5578      5578      5579
      5578      5580      5580      5581      5580      5582      5582      5583
      5582      5584      5582      5585      5585      5586      5585      5587
      5585      5588      5588      5589      5588      5590      5588      5591
      5591      5592      5591      5593      5591      5594      5594      5595
      5594      5596      5594      5597      5597      5598      5597      5599
      5597      5600      5600      5601      5600      5602      5600      5603
      5603      5604      5603      5605      5603      5606      5607      5611
      5607      5615      5607      5619      5611      5612      5611      5613
      5611      5614      5615      5616      5615      5617      5615      5618
      5619      5620      5619      5621      5619      5622      5607      5608
      5608      5609      5608      5610      5608      5623      5623      5624
      5623      5625      5623      5629      5630      5631      5629      5626
      5626      5630      5626      5627      5626      5628      5631      5632
      5631      5633      5631      5634      5634      5635      5634      5642
      5634      5636      5642      5643      5642      5644      5642      5645
      5636      5637      5637      5639      5637      5638      5639      5640
      5639      5641      5639      5651      5651      5652      5651      5653
      5651      5654      5654      5655      5654      5656      5654      5657
      5657      5658      5657      5659      5657      5660      5660      5661
      5660      5662      5660      5663      5663      5664      5663      5665
      5663      5666      5666      5667      5666      5668      5666      5669
      5669      5670      5669      5671      5671      5672      5671      5673
      5673      5674      5673      5675      5673      5676      5676      5677
      5676      5678      5676      5679      5679      5680      5679      5681
      5679      5682      5682      5683      5682      5684      5682      5685
      5685      5686      5685      5687      5685      5688      5688      5689
      5688      5690      5688      5691      5691      5692      5691      5693
      5691      5694      5694      5695      5694      5696      5694      5697
      5645      5646      5646      5648      5646      5647      5648      5649
      5648      5650      5648      5698      5698      5699      5698      5700
      5698      5701      5701      5702      5701      5703      5701      5704
      5704      5705      5704      5706      5704      5707      5707      5708
      5707      5709      5707      5710      5710      5711      5710      5712
      5710      5713      5713      5714      5713      5715      5713      5716
      5716      5717      5716      5718      5718      5719      5718      5720
      5720      5721      5720      5722      5720      5723      5723      5724
      5723      5725      5723      5726      5726      5727      5726      5728
      5726      5729      5729      5730      5729      5731      5729      5732
      5732      5733      5732      5734      5732      5735      5735      5736
      5735      5737      5735      5738      5738      5739      5738      5740
      5738      5741      5741      5742      5741      5743      5741      5744
      5745      5749      5745      5753      5745      5757      5749      5750
      5749      5751      5749      5752      5753      5754      5753      5755
      5753      5756      5757      5758      5757      5759      5757      5760
      5745      5746      5746      5747      5746      5748      5746      5761
      5761      5762      5761      5763      5761      5767      5768      5769
      5767      5764      5764      5768      5764      5765      5764      5766
      5769      5770      5769      5771      5769      5772      5772      5773
      5772      5780      5772      5774      5780      5781      5780      5782
      5780      5783      5774      5775      5775      5777      5775      5776
      5777      5778      5777      5779      5777      5789      5789      5790
      5789      5791      5789      5792      5792      5793      5792      5794
      5792      5795      5795      5796      5795      5797      5795      5798
      5798      5799      5798      5800      5798      5801      5801      5802
      5801      5803      5801      5804      5804      5805      5804      5806
      5804      5807      5807      5808      5807      5809      5809      5810
      5809      5811      5811      5812      5811      5813      5811      5814
      5814      5815      5814      5816      5814      5817      5817      5818
      5817      5819      5817      5820      5820      5821      5820      5822
      5820      5823      5823      5824      5823      5825      5823      5826
      5826      5827      5826      5828      5826      5829      5829      5830
      5829      5831      5829      5832      5832      5833      5832      5834
      5832      5835      5783      5784      5784      5786      5784      5785
      5786      5787      5786      5788      5786      5836      5836      5837
      5836      5838      5836      5839      5839      5840      5839      5841
      5839      5842      5842      5843      5842      5844      5842      5845
      5845      5846      5845      5847      5845      5848      5848      5849
      5848      5850      5848      5851      5851      5852      5851      5853
      5851      5854      5854      5855      5854      5856      5856      5857
      5856      5858      5858      5859      5858      5860      5858      5861
      5861      5862      5861      5863      5861      5864      5864      5865
      5864      5866      5864      5867      5867      5868      5867      5869
      5867      5870      5870      5871      5870      5872      5870      5873
      5873      5874      5873      5875      5873      5876      5876      5877
      5876      5878      5876      5879      5879      5880      5879      5881
      5879      5882      5883      5887      5883      5891      5883      5895
      5887      5888      5887      5889      5887      5890      5891      5892
      5891      5893      5891      5894      5895      5896      5895      5897
      5895      5898      5883      5884      5884      5885      5884      5886
      5884      5899      5899      5900      5899      5901      5899      5905
      5906      5907      5905      5902      5902      5906      5902      5903
      5902      5904      5907      5908      5907      5909      5907      5910
      5910      5911      5910      5918      5910      5912      5918      5919
      5918      5920      5918      5921      5912      5913      5913      5915
      5913      5914      5915      5916      5915      5917      5915      5927
      5927      5928      5927      5929      5927      5930      5930      5931
      5930      5932      5930      5933      5933      5934      5933      5935
      5933      5936      5936      5937      5936      5938      5936      5939
      5939      5940      5939      5941      5939      5942      5942      5943
      5942      5944      5942      5945      5945      5946      5945      5947
      5947      5948      5947      5949      5949      5950      5949      5951
      5949      5952      5952      5953      5952      5954      5952      5955
      5955      5956      5955      5957      5955      5958      5958      5959
      5958      5960      5958      5961      5961      5962      5961      5963
      5961      5964      5964      5965      5964      5966      5964      5967
      5967      5968      5967      5969      5967      5970      5970      5971
      5970      5972      5970      5973      5921      5922      5922      5924
      5922      5923      5924      5925      5924      5926      5924      5974
      5974      5975      5974      5976      5974      5977      5977      5978
      5977      5979      5977      5980      5980      5981      5980      5982
      5980      5983      5983      5984      5983      5985      5983      5986
      5986      5987      5986      5988      5986      5989      5989      5990
      5989      5991      5989      5992      5992      5993      5992      5994
      5994      5995      5994      5996      5996      5997      5996      5998
      5996      5999      5999      6000      5999      6001      5999      6002
      6002      6003      6002      6004      6002      6005      6005      6006
      6005      6007      6005      6008      6008      6009      6008      6010
      6008      6011      6011      6012      6011      6013      6011      6014
      6014      6015      6014      6016      6014      6017      6017      6018
      6017      6019      6017      6020      6021      6025      6021      6029
      6021      6033      6025      6026      6025      6027      6025      6028
      6029      6030      6029      6031      6029      6032      6033      6034
      6033      6035      6033      6036      6021      6022      6022      6023
      6022      6024      6022      6037      6037      6038      6037      6039
      6037      6043      6044      6045      6043      6040      6040      6044
      6040      6041      6040      6042      6045      6046      6045      6047
      6045      6048      6048      6049      6048      6056      6048      6050
      6056      6057      6056      6058      6056      6059      6050      6051
      6051      6053      6051      6052      6053      6054      6053      6055
      6053      6065      6065      6066      6065      6067      6065      6068
      6068      6069      6068      6070      6068      6071      6071      6072
      6071      6073      6071      6074      6074      6075      6074      6076
      6074      6077      6077      6078      6077      6079      6077      6080
      6080      6081      6080      6082      6080      6083      6083      6084
      6083      6085      6085      6086      6085      6087      6087      6088
      6087      6089      6087      6090      6090      6091      6090      6092
      6090      6093      6093      6094      6093      6095      6093      6096
      6096      6097      6096      6098      6096      6099      6099      6100
      6099      6101      6099      6102      6102      6103      6102      6104
      6102      6105      6105      6106      6105      6107      6105      6108
      6108      6109      6108      6110      6108      6111      6059      6060
      6060      6062      6060      6061      6062      6063      6062      6064
      6062      6112      6112      6113      6112      6114      6112      6115
      6115      6116      6115      6117      6115      6118      6118      6119
      6118      6120      6118      6121      6121      6122      6121      6123
      6121      6124      6124      6125      6124      6126      6124      6127
      6127      6128      6127      6129      6127      6130      6130      6131
      6130      6132      6132      6133      6132      6134      6134      6135
      6134      6136      6134      6137      6137      6138      6137      6139
      6137      6140      6140      6141      6140      6142      6140      6143
      6143      6144      6143      6145      6143      6146      6146      6147
      6146      6148      6146      6149      6149      6150      6149      6151
      6149      6152      6152      6153      6152      6154      6152      6155
      6155      6156      6155      6157      6155      6158      6159      6163
      6159      6167      6159      6171      6163      6164      6163      6165
      6163      6166      6167      6168      6167      6169      6167      6170
      6171      6172      6171      6173      6171      6174      6159      6160
      6160      6161      6160      6162      6160      6175      6175      6176
      6175      6177      6175      6181      6182      6183      6181      6178
      6178      6182      6178      6179      6178      6180      6183      6184
      6183      6185      6183      6186      6186      6187      6186      6194
      6186      6188      6194      6195      6194      6196      6194      6197
      6188      6189      6189      6191      6189      6190      6191      6192
      6191      6193      6191      6203      6203      6204      6203      6205
      6203      6206      6206      6207      6206      6208      6206      6209
      6209      6210      6209      6211      6209      6212      6212      6213
      6212      6214      6212      6215      6215      6216      6215      6217
      6215      6218      6218      6219      6218      6220      6218      6221
      6221      6222      6221      6223      6223      6224      6223      6225
      6225      6226      6225      6227      6225      6228      6228      6229
      6228      6230      6228      6231      6231      6232      6231      6233
      6231      6234      6234      6235      6234      6236      6234      6237
      6237      6238      6237      6239      6237      6240      6240      6241
      6240      6242      6240      6243      6243      6244      6243      6245
      6243      6246      6246      6247      6246      6248      6246      6249
      6197      6198      6198      6200      6198      6199      6200      6201
      6200      6202      6200      6250      6250      6251      6250      6252
      6250      6253      6253      6254      6253      6255      6253      6256
      6256      6257      6256      6258      6256      6259      6259      6260
      6259      6261      6259      6262      6262      6263      6262      6264
      6262      6265      6265      6266      6265      6267      6265      6268
      6268      6269      6268      6270      6270      6271      6270      6272
      6272      6273      6272      6274      6272      6275      6275      6276
      6275      6277      6275      6278      6278      6279      6278      6280
      6278      6281      6281      6282      6281      6283      6281      6284
      6284      6285      6284      6286      6284      6287      6287      6288
      6287      6289      6287      6290      6290      6291      6290      6292
      6290      6293      6293      6294      6293      6295      6293      6296
      6297      6301      6297      6305      6297      6309      6301      6302
      6301      6303      6301      6304      6305      6306      6305      6307
      6305      6308      6309      6310      6309      6311      6309      6312
      6297      6298      6298      6299      6298      6300      6298      6313
      6313      6314      6313      6315      6313      6319      6320      6321
      6319      6316      6316      6320      6316      6317      6316      6318
      6321      6322      6321      6323      6321      6324      6324      6325
      6324      6332      6324      6326      6332      6333      6332      6334
      6332      6335      6326      6327      6327      6329      6327      6328
      6329      6330      6329      6331      6329      6341      6341      6342
      6341      6343      6341      6344      6344      6345      6344      6346
      6344      6347      6347      6348      6347      6349      6347      6350
      6350      6351      6350      6352      6350      6353      6353      6354
      6353      6355      6353      6356      6356      6357      6356      6358
      6356      6359      6359      6360      6359      6361      6361      6362
      6361      6363      6363      6364      6363      6365      6363      6366
      6366      6367      6366      6368      6366      6369      6369      6370
      6369      6371      6369      6372      6372      6373      6372      6374
      6372      6375      6375      6376      6375      6377      6375      6378
      6378      6379      6378      6380      6378      6381      6381      6382
      6381      6383      6381      6384      6384      6385      6384      6386
      6384      6387      6335      6336      6336      6338      6336      6337
      6338      6339      6338      6340      6338      6388      6388      6389
      6388      6390      6388      6391      6391      6392      6391      6393
      6391      6394      6394      6395      6394      6396      6394      6397
      6397      6398      6397      6399      6397      6400      6400      6401
      6400      6402      6400      6403      6403      6404      6403      6405
      6403      6406      6406      6407      6406      6408      6408      6409
      6408      6410      6410      6411      6410      6412      6410      6413
      6413      6414      6413      6415      6413      6416      6416      6417
      6416      6418      6416      6419      6419      6420      6419      6421
      6419      6422      6422      6423      6422      6424      6422      6425
      6425      6426      6425      6427      6425      6428      6428      6429
      6428      6430      6428      6431      6431      6432      6431      6433
      6431      6434      6435      6439      6435      6443      6435      6447
      6439      6440      6439      6441      6439      6442      6443      6444
      6443      6445      6443      6446      6447      6448      6447      6449
      6447      6450      6435      6436      6436      6437      6436      6438
      6436      6451      6451      6452      6451      6453      6451      6457
      6458      6459      6457      6454      6454      6458      6454      6455
      6454      6456      6459      6460      6459      6461      6459      6462
      6462      6463      6462      6470      6462      6464      6470      6471
      6470      6472      6470      6473      6464      6465      6465      6467
      6465      6466      6467      6468      6467      6469      6467      6479
      6479      6480      6479      6481      6479      6482      6482      6483
      6482      6484      6482      6485      6485      6486      6485      6487
      6485      6488      6488      6489      6488      6490      6488      6491
      6491      6492      6491      6493      6491      6494      6494      6495
      6494      6496      6494      6497      6497      6498      6497      6499
      6499      6500      6499      6501      6501      6502      6501      6503
      6501      6504      6504      6505      6504      6506      6504      6507
      6507      6508      6507      6509      6507      6510      6510      6511
      6510      6512      6510      6513      6513      6514      6513      6515
      6513      6516      6516      6517      6516      6518      6516      6519
      6519      6520      6519      6521      6519      6522      6522      6523
      6522      6524      6522      6525      6473      6474      6474      6476
      6474      6475      6476      6477      6476      6478      6476      6526
      6526      6527      6526      6528      6526      6529      6529      6530
      6529      6531      6529      6532      6532      6533      6532      6534
      6532      6535      6535      6536      6535      6537      6535      6538
      6538      6539      6538      6540      6538      6541      6541      6542
      6541      6543      6541      6544      6544      6545      6544      6546
      6546      6547      6546      6548      6548      6549      6548      6550
      6548      6551      6551      6552      6551      6553      6551      6554
      6554      6555      6554      6556      6554      6557      6557      6558
      6557      6559      6557      6560      6560      6561      6560      6562
      6560      6563      6563      6564      6563      6565      6563      6566
      6566      6567      6566      6568      6566      6569      6569      6570
      6569      6571      6569      6572      6573      6577      6573      6581
      6573      6585      6577      6578      6577      6579      6577      6580
      6581      6582      6581      6583      6581      6584      6585      6586
      6585      6587      6585      6588      6573      6574      6574      6575
      6574      6576      6574      6589      6589      6590      6589      6591
      6589      6595      6596      6597      6595      6592      6592      6596
      6592      6593      6592      6594      6597      6598      6597      6599
      6597      6600      6600      6601      6600      6608      6600      6602
      6608      6609      6608      6610      6608      6611      6602      6603
      6603      6605      6603      6604      6605      6606      6605      6607
      6605      6617      6617      6618      6617      6619      6617      6620
      6620      6621      6620      6622      6620      6623      6623      6624
      6623      6625      6623      6626      6626      6627      6626      6628
      6626      6629      6629      6630      6629      6631      6629      6632
      6632      6633      6632      6634      6632      6635      6635      6636
      6635      6637      6637      6638      6637      6639      6639      6640
      6639      6641      6639      6642      6642      6643      6642      6644
      6642      6645      6645      6646      6645      6647      6645      6648
      6648      6649      6648      6650      6648      6651      6651      6652
      6651      6653      6651      6654      6654      6655      6654      6656
      6654      6657      6657      6658      6657      6659      6657      6660
      6660      6661      6660      6662      6660      6663      6611      6612
      6612      6614      6612      6613      6614      6615      6614      6616
      6614      6664      6664      6665      6664      6666      6664      6667
      6667      6668      6667      6669      6667      6670      6670      6671
      6670      6672      6670      6673      6673      6674      6673      6675
      6673      6676      6676      6677      6676      6678      6676      6679
      6679      6680      6679      6681      6679      6682      6682      6683
      6682      6684      6684      6685      6684      6686      6686      6687
      6686      6688      6686      6689      6689      6690      6689      6691
      6689      6692      6692      6693      6692      6694      6692      6695
      6695      6696      6695      6697      6695      6698      6698      6699
      6698      6700      6698      6701      6701      6702      6701      6703
      6701      6704      6704      6705      6704      6706      6704      6707
      6707      6708      6707      6709      6707      6710      6711      6715
      6711      6719      6711      6723      6715      6716      6715      6717
      6715      6718      6719      6720      6719      6721      6719      6722
      6723      6724      6723      6725      6723      6726      6711      6712
      6712      6713      6712      6714      6712      6727      6727      6728
      6727      6729      6727      6733      6734      6735      6733      6730
      6730      6734      6730      6731      6730      6732      6735      6736
      6735      6737      6735      6738      6738      6739      6738      6746
      6738      6740      6746      6747      6746      6748      6746      6749
      6740      6741      6741      6743      6741      6742      6743      6744
      6743      6745      6743      6755      6755      6756      6755      6757
      6755      6758      6758      6759      6758      6760      6758      6761
      6761      6762      6761      6763      6761      6764      6764      6765
      6764      6766      6764      6767      6767      6768      6767      6769
      6767      6770      6770      6771      6770      6772      6770      6773
      6773      6774      6773      6775      6775      6776      6775      6777
      6777      6778      6777      6779      6777      6780      6780      6781
      6780      6782      6780      6783      6783      6784      6783      6785
      6783      6786      6786      6787      6786      6788      6786      6789
      6789      6790      6789      6791      6789      6792      6792      6793
      6792      6794      6792      6795      6795      6796      6795      6797
      6795      6798      6798      6799      6798      6800      6798      6801
      6749      6750      6750      6752      6750      6751      6752      6753
      6752      6754      6752      6802      6802      6803      6802      6804
      6802      6805      6805      6806      6805      6807      6805      6808
      6808      6809      6808      6810      6808      6811      6811      6812
      6811      6813      6811      6814      6814      6815      6814      6816
      6814      6817      6817      6818      6817      6819      6817      6820
      6820      6821      6820      6822      6822      6823      6822      6824
      6824      6825      6824      6826      6824      6827      6827      6828
      6827      6829      6827      6830      6830      6831      6830      6832
      6830      6833      6833      6834      6833      6835      6833      6836
      6836      6837      6836      6838      6836      6839      6839      6840
      6839      6841      6839      6842      6842      6843      6842      6844
      6842      6845      6845      6846      6845      6847      6845      6848
      6849      6853      6849      6857      6849      6861      6853      6854
      6853      6855      6853      6856      6857      6858      6857      6859
      6857      6860      6861      6862      6861      6863      6861      6864
      6849      6850      6850      6851      6850      6852      6850      6865
      6865      6866      6865      6867      6865      6871      6872      6873
      6871      6868      6868      6872      6868      6869      6868      6870
      6873      6874      6873      6875      6873      6876      6876      6877
      6876      6884      6876      6878      6884      6885      6884      6886
      6884      6887      6878      6879      6879      6881      6879      6880
      6881      6882      6881      6883      6881      6893      6893      6894
      6893      6895      6893      6896      6896      6897      6896      6898
      6896      6899      6899      6900      6899      6901      6899      6902
      6902      6903      6902      6904      6902      6905      6905      6906
      6905      6907      6905      6908      6908      6909      6908      6910
      6908      6911      6911      6912      6911      6913      6913      6914
      6913      6915      6915      6916      6915      6917      6915      6918
      6918      6919      6918      6920      6918      6921      6921      6922
      6921      6923      6921      6924      6924      6925      6924      6926
      6924      6927      6927      6928      6927      6929      6927      6930
      6930      6931      6930      6932      6930      6933      6933      6934
      6933      6935      6933      6936      6936      6937      6936      6938
      6936      6939      6887      6888      6888      6890      6888      6889
      6890      6891      6890      6892      6890      6940      6940      6941
      6940      6942      6940      6943      6943      6944      6943      6945
      6943      6946      6946      6947      6946      6948      6946      6949
      6949      6950      6949      6951      6949      6952      6952      6953
      6952      6954      6952      6955      6955      6956      6955      6957
      6955      6958      6958      6959      6958      6960      6960      6961
      6960      6962      6962      6963      6962      6964      6962      6965
      6965      6966      6965      6967      6965      6968      6968      6969
      6968      6970      6968      6971      6971      6972      6971      6973
      6971      6974      6974      6975      6974      6976      6974      6977
      6977      6978      6977      6979      6977      6980      6980      6981
      6980      6982      6980      6983      6983      6984      6983      6985
      6983      6986      6987      6991      6987      6995      6987      6999
      6991      6992      6991      6993      6991      6994      6995      6996
      6995      6997      6995      6998      6999      7000      6999      7001
      6999      7002      6987      6988      6988      6989      6988      6990
      6988      7003      7003      7004      7003      7005      7003      7009
      7010      7011      7009      7006      7006      7010      7006      7007
      7006      7008      7011      7012      7011      7013      7011      7014
      7014      7015      7014      7022      7014      7016      7022      7023
      7022      7024      7022      7025      7016      7017      7017      7019
      7017      7018      7019      7020      7019      7021      7019      7031
      7031      7032      7031      7033      7031      7034      7034      7035
      7034      7036      7034      7037      7037      7038      7037      7039
      7037      7040      7040      7041      7040      7042      7040      7043
      7043      7044      7043      7045      7043      7046      7046      7047
      7046      7048      7046      7049      7049      7050      7049      7051
      7051      7052      7051      7053      7053      7054      7053      7055
      7053      7056      7056      7057      7056      7058      7056      7059
      7059      7060      7059      7061      7059      7062      7062      7063
      7062      7064      7062      7065      7065      7066      7065      7067
      7065      7068      7068      7069      7068      7070      7068      7071
      7071      7072      7071      7073      7071      7074      7074      7075
      7074      7076      7074      7077      7025      7026      7026      7028
      7026      7027      7028      7029      7028      7030      7028      7078
      7078      7079      7078      7080      7078      7081      7081      7082
      7081      7083      7081      7084      7084      7085      7084      7086
      7084      7087      7087      7088      7087      7089      7087      7090
      7090      7091      7090      7092      7090      7093      7093      7094
      7093      7095      7093      7096      7096      7097      7096      7098
      7098      7099      7098      7100      7100      7101      7100      7102
      7100      7103      7103      7104      7103      7105      7103      7106
      7106      7107      7106      7108      7106      7109      7109      7110
      7109      7111      7109      7112      7112      7113      7112      7114
      7112      7115      7115      7116      7115      7117      7115      7118
      7118      7119      7118      7120      7118      7121      7121      7122
      7121      7123      7121      7124      7125      7129      7125      7133
      7125      7137      7129      7130      7129      7131      7129      7132
      7133      7134      7133      7135      7133      7136      7137      7138
      7137      7139      7137      7140      7125      7126      7126      7127
      7126      7128      7126      7141      7141      7142      7141      7143
      7141      7147      7148      7149      7147      7144      7144      7148
      7144      7145      7144      7146      7149      7150      7149      7151
      7149      7152      7152      7153      7152      7160      7152      7154
      7160      7161      7160      7162      7160      7163      7154      7155
      7155      7157      7155      7156      7157      7158      7157      7159
      7157      7169      7169      7170      7169      7171      7169      7172
      7172      7173      7172      7174      7172      7175      7175      7176
      7175      7177      7175      7178      7178      7179      7178      7180
      7178      7181      7181      7182      7181      7183      7181      7184
      7184      7185      7184      7186      7184      7187      7187      7188
      7187      7189      7189      7190      7189      7191      7191      7192
      7191      7193      7191      7194      7194      7195      7194      7196
      7194      7197      7197      7198      7197      7199      7197      7200
      7200      7201      7200      7202      7200      7203      7203      7204
      7203      7205      7203      7206      7206      7207      7206      7208
      7206      7209      7209      7210      7209      7211      7209      7212
      7212      7213      7212      7214      7212      7215      7163      7164
      7164      7166      7164      7165      7166      7167      7166      7168
      7166      7216      7216      7217      7216      7218      7216      7219
      7219      7220      7219      7221      7219      7222      7222      7223
      7222      7224      7222      7225      7225      7226      7225      7227
      7225      7228      7228      7229      7228      7230      7228      7231
      7231      7232      7231      7233      7231      7234      7234      7235
      7234      7236      7236      7237      7236      7238      7238      7239
      7238      7240      7238      7241      7241      7242      7241      7243
      7241      7244      7244      7245      7244      7246      7244      7247
      7247      7248      7247      7249      7247      7250      7250      7251
      7250      7252      7250      7253      7253      7254      7253      7255
      7253      7256      7256      7257      7256      7258      7256      7259
      7259      7260      7259      7261      7259      7262      7263      7267
      7263      7271      7263      7275      7267      7268      7267      7269
      7267      7270      7271      7272      7271      7273      7271      7274
      7275      7276      7275      7277      7275      7278      7263      7264
      7264      7265      7264      7266      7264      7279      7279      7280
      7279      7281      7279      7285      7286      7287      7285      7282
      7282      7286      7282      7283      7282      7284      7287      7288
      7287      7289      7287      7290      7290      7291      7290      7298
      7290      7292      7298      7299      7298      7300      7298      7301
      7292      7293      7293      7295      7293      7294      7295      7296
      7295      7297      7295      7307      7307      7308      7307      7309
      7307      7310      7310      7311      7310      7312      7310      7313
      7313      7314      7313      7315      7313      7316      7316      7317
      7316      7318      7316      7319      7319      7320      7319      7321
      7319      7322      7322      7323      7322      7324      7322      7325
      7325      7326      7325      7327      7327      7328      7327      7329
      7329      7330      7329      7331      7329      7332      7332      7333
      7332      7334      7332      7335      7335      7336      7335      7337
      7335      7338      7338      7339      7338      7340      7338      7341
      7341      7342      7341      7343      7341      7344      7344      7345
      7344      7346      7344      7347      7347      7348      7347      7349
      7347      7350      7350      7351      7350      7352      7350      7353
      7301      7302      7302      7304      7302      7303      7304      7305
      7304      7306      7304      7354      7354      7355      7354      7356
      7354      7357      7357      7358      7357      7359      7357      7360
      7360      7361      7360      7362      7360      7363      7363      7364
      7363      7365      7363      7366      7366      7367      7366      7368
      7366      7369      7369      7370      7369      7371      7369      7372
      7372      7373      7372      7374      7374      7375      7374      7376
      7376      7377      7376      7378      7376      7379      7379      7380
      7379      7381      7379      7382      7382      7383      7382      7384
      7382      7385      7385      7386      7385      7387      7385      7388
      7388      7389      7388      7390      7388      7391      7391      7392
      7391      7393      7391      7394      7394      7395      7394      7396
      7394      7397      7397      7398      7397      7399      7397      7400
      7401      7405      7401      7409      7401      7413      7405      7406
      7405      7407      7405      7408      7409      7410      7409      7411
      7409      7412      7413      7414      7413      7415      7413      7416
      7401      7402      7402      7403      7402      7404      7402      7417
      7417      7418      7417      7419      7417      7423      7424      7425
      7423      7420      7420      7424      7420      7421      7420      7422
      7425      7426      7425      7427      7425      7428      7428      7429
      7428      7436      7428      7430      7436      7437      7436      7438
      7436      7439      7430      7431      7431      7433      7431      7432
      7433      7434      7433      7435      7433      7445      7445      7446
      7445      7447      7445      7448      7448      7449      7448      7450
      7448      7451      7451      7452      7451      7453      7451      7454
      7454      7455      7454      7456      7454      7457      7457      7458
      7457      7459      7457      7460      7460      7461      7460      7462
      7460      7463      7463      7464      7463      7465      7465      7466
      7465      7467      7467      7468      7467      7469      7467      7470
      7470      7471      7470      7472      7470      7473      7473      7474
      7473      7475      7473      7476      7476      7477      7476      7478
      7476      7479      7479      7480      7479      7481      7479      7482
      7482      7483      7482      7484      7482      7485      7485      7486
      7485      7487      7485      7488      7488      7489      7488      7490
      7488      7491      7439      7440      7440      7442      7440      7441
      7442      7443      7442      7444      7442      7492      7492      7493
      7492      7494      7492      7495      7495      7496      7495      7497
      7495      7498      7498      7499      7498      7500      7498      7501
      7501      7502      7501      7503      7501      7504      7504      7505
      7504      7506      7504      7507      7507      7508      7507      7509
      7507      7510      7510      7511      7510      7512      7512      7513
      7512      7514      7514      7515      7514      7516      7514      7517
      7517      7518      7517      7519      7517      7520      7520      7521
      7520      7522      7520      7523      7523      7524      7523      7525
      7523      7526      7526      7527      7526      7528      7526      7529
      7529      7530      7529      7531      7529      7532      7532      7533
      7532      7534      7532      7535      7535      7536      7535      7537
      7535      7538      7539      7543      7539      7547      7539      7551
      7543      7544      7543      7545      7543      7546      7547      7548
      7547      7549      7547      7550      7551      7552      7551      7553
      7551      7554      7539      7540      7540      7541      7540      7542
      7540      7555      7555      7556      7555      7557      7555      7561
      7562      7563      7561      7558      7558      7562      7558      7559
      7558      7560      7563      7564      7563      7565      7563      7566
      7566      7567      7566      7574      7566      7568      7574      7575
      7574      7576      7574      7577      7568      7569      7569      7571
      7569      7570      7571      7572      7571      7573      7571      7583
      7583      7584      7583      7585      7583      7586      7586      7587
      7586      7588      7586      7589      7589      7590      7589      7591
      7589      7592      7592      7593      7592      7594      7592      7595
      7595      7596      7595      7597      7595      7598      7598      7599
      7598      7600      7598      7601      7601      7602      7601      7603
      7603      7604      7603      7605      7605      7606      7605      7607
      7605      7608      7608      7609      7608      7610      7608      7611
      7611      7612      7611      7613      7611      7614      7614      7615
      7614      7616      7614      7617      7617      7618      7617      7619
      7617      7620      7620      7621      7620      7622      7620      7623
      7623      7624      7623      7625      7623      7626      7626      7627
      7626      7628      7626      7629      7577      7578      7578      7580
      7578      7579      7580      7581      7580      7582      7580      7630
      7630      7631      7630      7632      7630      7633      7633      7634
      7633      7635      7633      7636      7636      7637      7636      7638
      7636      7639      7639      7640      7639      7641      7639      7642
      7642      7643      7642      7644      7642      7645      7645      7646
      7645      7647      7645      7648      7648      7649      7648      7650
      7650      7651      7650      7652      7652      7653      7652      7654
      7652      7655      7655      7656      7655      7657      7655      7658
      7658      7659      7658      7660      7658      7661      7661      7662
      7661      7663      7661      7664      7664      7665      7664      7666
      7664      7667      7667      7668      7667      7669      7667      7670
      7670      7671      7670      7672      7670      7673      7673      7674
      7673      7675      7673      7676      7677      7681      7677      7685
      7677      7689      7681      7682      7681      7683      7681      7684
      7685      7686      7685      7687      7685      7688      7689      7690
      7689      7691      7689      7692      7677      7678      7678      7679
      7678      7680      7678      7693      7693      7694      7693      7695
      7693      7699      7700      7701      7699      7696      7696      7700
      7696      7697      7696      7698      7701      7702      7701      7703
      7701      7704      7704      7705      7704      7712      7704      7706
      7712      7713      7712      7714      7712      7715      7706      7707
      7707      7709      7707      7708      7709      7710      7709      7711
      7709      7721      7721      7722      7721      7723      7721      7724
      7724      7725      7724      7726      7724      7727      7727      7728
      7727      7729      7727      7730      7730      7731      7730      7732
      7730      7733      7733      7734      7733      7735      7733      7736
      7736      7737      7736      7738      7736      7739      7739      7740
      7739      7741      7741      7742      7741      7743      7743      7744
      7743      7745      7743      7746      7746      7747      7746      7748
      7746      7749      7749      7750      7749      7751      7749      7752
      7752      7753      7752      7754      7752      7755      7755      7756
      7755      7757      7755      7758      7758      7759      7758      7760
      7758      7761      7761      7762      7761      7763      7761      7764
      7764      7765      7764      7766      7764      7767      7715      7716
      7716      7718      7716      7717      7718      7719      7718      7720
      7718      7768      7768      7769      7768      7770      7768      7771
      7771      7772      7771      7773      7771      7774      7774      7775
      7774      7776      7774      7777      7777      7778      7777      7779
      7777      7780      7780      7781      7780      7782      7780      7783
      7783      7784      7783      7785      7783      7786      7786      7787
      7786      7788      7788      7789      7788      7790      7790      7791
      7790      7792      7790      7793      7793      7794      7793      7795
      7793      7796      7796      7797      7796      7798      7796      7799
      7799      7800      7799      7801      7799      7802      7802      7803
      7802      7804      7802      7805      7805      7806      7805      7807
      7805      7808      7808      7809      7808      7810      7808      7811
      7811      7812      7811      7813      7811      7814      7815      7819
      7815      7823      7815      7827      7819      7820      7819      7821
      7819      7822      7823      7824      7823      7825      7823      7826
      7827      7828      7827      7829      7827      7830      7815      7816
      7816      7817      7816      7818      7816      7831      7831      7832
      7831      7833      7831      7837      7838      7839      7837      7834
      7834      7838      7834      7835      7834      7836      7839      7840
      7839      7841      7839      7842      7842      7843      7842      7850
      7842      7844      7850      7851      7850      7852      7850      7853
      7844      7845      7845      7847      7845      7846      7847      7848
      7847      7849      7847      7859      7859      7860      7859      7861
      7859      7862      7862      7863      7862      7864      7862      7865
      7865      7866      7865      7867      7865      7868      7868      7869
      7868      7870      7868      7871      7871      7872      7871      7873
      7871      7874      7874      7875      7874      7876      7874      7877
      7877      7878      7877      7879      7879      7880      7879      7881
      7881      7882      7881      7883      7881      7884      7884      7885
      7884      7886      7884      7887      7887      7888      7887      7889
      7887      7890      7890      7891      7890      7892      7890      7893
      7893      7894      7893      7895      7893      7896      7896      7897
      7896      7898      7896      7899      7899      7900      7899      7901
      7899      7902      7902      7903      7902      7904      7902      7905
      7853      7854      7854      7856      7854      7855      7856      7857
      7856      7858      7856      7906      7906      7907      7906      7908
      7906      7909      7909      7910      7909      7911      7909      7912
      7912      7913      7912      7914      7912      7915      7915      7916
      7915      7917      7915      7918      7918      7919      7918      7920
      7918      7921      7921      7922      7921      7923      7921      7924
      7924      7925      7924      7926      7926      7927      7926      7928
      7928      7929      7928      7930      7928      7931      7931      7932
      7931      7933      7931      7934      7934      7935      7934      7936
      7934      7937      7937      7938      7937      7939      7937      7940
      7940      7941      7940      7942      7940      7943      7943      7944
      7943      7945      7943      7946      7946      7947      7946      7948
      7946      7949      7949      7950      7949      7951      7949      7952
      7953      7957      7953      7961      7953      7965      7957      7958
      7957      7959      7957      7960      7961      7962      7961      7963
      7961      7964      7965      7966      7965      7967      7965      7968
      7953      7954      7954      7955      7954      7956      7954      7969
      7969      7970      7969      7971      7969      7975      7976      7977
      7975      7972      7972      7976      7972      7973      7972      7974
      7977      7978      7977      7979      7977      7980      7980      7981
      7980      7988      7980      7982      7988      7989      7988      7990
      7988      7991      7982      7983      7983      7985      7983      7984
      7985      7986      7985      7987      7985      7997      7997      7998
      7997      7999      7997      8000      8000      8001      8000      8002
      8000      8003      8003      8004      8003      8005      8003      8006
      8006      8007      8006      8008      8006      8009      8009      8010
      8009      8011      8009      8012      8012      8013      8012      8014
      8012      8015      8015      8016      8015      8017      8017      8018
      8017      8019      8019      8020      8019      8021      8019      8022
      8022      8023      8022      8024      8022      8025      8025      8026
      8025      8027      8025      8028      8028      8029      8028      8030
      8028      8031      8031      8032      8031      8033      8031      8034
      8034      8035      8034      8036      8034      8037      8037      8038
      8037      8039      8037      8040      8040      8041      8040      8042
      8040      8043      7991      7992      7992      7994      7992      7993
      7994      7995      7994      7996      7994      8044      8044      8045
      8044      8046      8044      8047      8047      8048      8047      8049
      8047      8050      8050      8051      8050      8052      8050      8053
      8053      8054      8053      8055      8053      8056      8056      8057
      8056      8058      8056      8059      8059      8060      8059      8061
      8059      8062      8062      8063      8062      8064      8064      8065
      8064      8066      8066      8067      8066      8068      8066      8069
      8069      8070      8069      8071      8069      8072      8072      8073
      8072      8074      8072      8075      8075      8076      8075      8077
      8075      8078      8078      8079      8078      8080      8078      8081
      8081      8082      8081      8083      8081      8084      8084      8085
      8084      8086      8084      8087      8087      8088      8087      8089
      8087      8090      8091      8095      8091      8099      8091      8103
      8095      8096      8095      8097      8095      8098      8099      8100
      8099      8101      8099      8102      8103      8104      8103      8105
      8103      8106      8091      8092      8092      8093      8092      8094
      8092      8107      8107      8108      8107      8109      8107      8113
      8114      8115      8113      8110      8110      8114      8110      8111
      8110      8112      8115      8116      8115      8117      8115      8118
      8118      8119      8118      8126      8118      8120      8126      8127
      8126      8128      8126      8129      8120      8121      8121      8123
      8121      8122      8123      8124      8123      8125      8123      8135
      8135      8136      8135      8137      8135      8138      8138      8139
      8138      8140      8138      8141      8141      8142      8141      8143
      8141      8144      8144      8145      8144      8146      8144      8147
      8147      8148      8147      8149      8147      8150      8150      8151
      8150      8152      8150      8153      8153      8154      8153      8155
      8155      8156      8155      8157      8157      8158      8157      8159
      8157      8160      8160      8161      8160      8162      8160      8163
      8163      8164      8163      8165      8163      8166      8166      8167
      8166      8168      8166      8169      8169      8170      8169      8171
      8169      8172      8172      8173      8172      8174      8172      8175
      8175      8176      8175      8177      8175      8178      8178      8179
      8178      8180      8178      8181      8129      8130      8130      8132
      8130      8131      8132      8133      8132      8134      8132      8182
      8182      8183      8182      8184      8182      8185      8185      8186
      8185      8187      8185      8188      8188      8189      8188      8190
      8188      8191      8191      8192      8191      8193      8191      8194
      8194      8195      8194      8196      8194      8197      8197      8198
      8197      8199      8197      8200      8200      8201      8200      8202
      8202      8203      8202      8204      8204      8205      8204      8206
      8204      8207      8207      8208      8207      8209      8207      8210
      8210      8211      8210      8212      8210      8213      8213      8214
      8213      8215      8213      8216      8216      8217      8216      8218
      8216      8219      8219      8220      8219      8221      8219      8222
      8222      8223      8222      8224      8222      8225      8225      8226
      8225      8227      8225      8228      8229      8233      8229      8237
      8229      8241      8233      8234      8233      8235      8233      8236
      8237      8238      8237      8239      8237      8240      8241      8242
      8241      8243      8241      8244      8229      8230      8230      8231
      8230      8232      8230      8245      8245      8246      8245      8247
      8245      8251      8252      8253      8251      8248      8248      8252
      8248      8249      8248      8250      8253      8254      8253      8255
      8253      8256      8256      8257      8256      8264      8256      8258
      8264      8265      8264      8266      8264      8267      8258      8259
      8259      8261      8259      8260      8261      8262      8261      8263
      8261      8273      8273      8274      8273      8275      8273      8276
      8276      8277      8276      8278      8276      8279      8279      8280
      8279      8281      8279      8282      8282      8283      8282      8284
      8282      8285      8285      8286      8285      8287      8285      8288
      8288      8289      8288      8290      8288      8291      8291      8292
      8291      8293      8293      8294      8293      8295      8295      8296
      8295      8297      8295      8298      8298      8299      8298      8300
      8298      8301      8301      8302      8301      8303      8301      8304
      8304      8305      8304      8306      8304      8307      8307      8308
      8307      8309      8307      8310      8310      8311      8310      8312
      8310      8313      8313      8314      8313      8315      8313      8316
      8316      8317      8316      8318      8316      8319      8267      8268
      8268      8270      8268      8269      8270      8271      8270      8272
      8270      8320      8320      8321      8320      8322      8320      8323
      8323      8324      8323      8325      8323      8326      8326      8327
      8326      8328      8326      8329      8329      8330      8329      8331
      8329      8332      8332      8333      8332      8334      8332      8335
      8335      8336      8335      8337      8335      8338      8338      8339
      8338      8340      8340      8341      8340      8342      8342      8343
      8342      8344      8342      8345      8345      8346      8345      8347
      8345      8348      8348      8349      8348      8350      8348      8351
      8351      8352      8351      8353      8351      8354      8354      8355
      8354      8356      8354      8357      8357      8358      8357      8359
      8357      8360      8360      8361      8360      8362      8360      8363
      8363      8364      8363      8365      8363      8366      8367      8371
      8367      8375      8367      8379      8371      8372      8371      8373
      8371      8374      8375      8376      8375      8377      8375      8378
      8379      8380      8379      8381      8379      8382      8367      8368
      8368      8369      8368      8370      8368      8383      8383      8384
      8383      8385      8383      8389      8390      8391      8389      8386
      8386      8390      8386      8387      8386      8388      8391      8392
      8391      8393      8391      8394      8394      8395      8394      8402
      8394      8396      8402      8403      8402      8404      8402      8405
      8396      8397      8397      8399      8397      8398      8399      8400
      8399      8401      8399      8411      8411      8412      8411      8413
      8411      8414      8414      8415      8414      8416      8414      8417
      8417      8418      8417      8419      8417      8420      8420      8421
      8420      8422      8420      8423      8423      8424      8423      8425
      8423      8426      8426      8427      8426      8428      8426      8429
      8429      8430      8429      8431      8431      8432      8431      8433
      8433      8434      8433      8435      8433      8436      8436      8437
      8436      8438      8436      8439      8439      8440      8439      8441
      8439      8442      8442      8443      8442      8444      8442      8445
      8445      8446      8445      8447      8445      8448      8448      8449
      8448      8450      8448      8451      8451      8452      8451      8453
      8451      8454      8454      8455      8454      8456      8454      8457
      8405      8406      8406      8408      8406      8407      8408      8409
      8408      8410      8408      8458      8458      8459      8458      8460
      8458      8461      8461      8462      8461      8463      8461      8464
      8464      8465      8464      8466      8464      8467      8467      8468
      8467      8469      8467      8470      8470      8471      8470      8472
      8470      8473      8473      8474      8473      8475      8473      8476
      8476      8477      8476      8478      8478      8479      8478      8480
      8480      8481      8480      8482      8480      8483      8483      8484
      8483      8485      8483      8486      8486      8487      8486      8488
      8486      8489      8489      8490      8489      8491      8489      8492
      8492      8493      8492      8494      8492      8495      8495      8496
      8495      8497      8495      8498      8498      8499      8498      8500
      8498      8501      8501      8502      8501      8503      8501      8504
      8505      8509      8505      8513      8505      8517      8509      8510
      8509      8511      8509      8512      8513      8514      8513      8515
      8513      8516      8517      8518      8517      8519      8517      8520
      8505      8506      8506      8507      8506      8508      8506      8521
      8521      8522      8521      8523      8521      8527      8528      8529
      8527      8524      8524      8528      8524      8525      8524      8526
      8529      8530      8529      8531      8529      8532      8532      8533
      8532      8540      8532      8534      8540      8541      8540      8542
      8540      8543      8534      8535      8535      8537      8535      8536
      8537      8538      8537      8539      8537      8549      8549      8550
      8549      8551      8549      8552      8552      8553      8552      8554
      8552      8555      8555      8556      8555      8557      8555      8558
      8558      8559      8558      8560      8558      8561      8561      8562
      8561      8563      8561      8564      8564      8565      8564      8566
      8564      8567      8567      8568      8567      8569      8569      8570
      8569      8571      8571      8572      8571      8573      8571      8574
      8574      8575      8574      8576      8574      8577      8577      8578
      8577      8579      8577      8580      8580      8581      8580      8582
      8580      8583      8583      8584      8583      8585      8583      8586
      8586      8587      8586      8588      8586      8589      8589      8590
      8589      8591      8589      8592      8592      8593      8592      8594
      8592      8595      8543      8544      8544      8546      8544      8545
      8546      8547      8546      8548      8546      8596      8596      8597
      8596      8598      8596      8599      8599      8600      8599      8601
      8599      8602      8602      8603      8602      8604      8602      8605
      8605      8606      8605      8607      8605      8608      8608      8609
      8608      8610      8608      8611      8611      8612      8611      8613
      8611      8614      8614      8615      8614      8616      8616      8617
      8616      8618      8618      8619      8618      8620      8618      8621
      8621      8622      8621      8623      8621      8624      8624      8625
      8624      8626      8624      8627      8627      8628      8627      8629
      8627      8630      8630      8631      8630      8632      8630      8633
      8633      8634      8633      8635      8633      8636      8636      8637
      8636      8638      8636      8639      8639      8640      8639      8641
      8639      8642      8643      8647      8643      8651      8643      8655
      8647      8648      8647      8649      8647      8650      8651      8652
      8651      8653      8651      8654      8655      8656      8655      8657
      8655      8658      8643      8644      8644      8645      8644      8646
      8644      8659      8659      8660      8659      8661      8659      8665
      8666      8667      8665      8662      8662      8666      8662      8663
      8662      8664      8667      8668      8667      8669      8667      8670
      8670      8671      8670      8678      8670      8672      8678      8679
      8678      8680      8678      8681      8672      8673      8673      8675
      8673      8674      8675      8676      8675      8677      8675      8687
      8687      8688      8687      8689      8687      8690      8690      8691
      8690      8692      8690      8693      8693      8694      8693      8695
      8693      8696      8696      8697      8696      8698      8696      8699
      8699      8700      8699      8701      8699      8702      8702      8703
      8702      8704      8702      8705      8705      8706      8705      8707
      8707      8708      8707      8709      8709      8710      8709      8711
      8709      8712      8712      8713      8712      8714      8712      8715
      8715      8716      8715      8717      8715      8718      8718      8719
      8718      8720      8718      8721      8721      8722      8721      8723
      8721      8724      8724      8725      8724      8726      8724      8727
      8727      8728      8727      8729      8727      8730      8730      8731
      8730      8732      8730      8733      8681      8682      8682      8684
      8682      8683      8684      8685      8684      8686      8684      8734
      8734      8735      8734      8736      8734      8737      8737      8738
      8737      8739      8737      8740      8740      8741      8740      8742
      8740      8743      8743      8744      8743      8745      8743      8746
      8746      8747      8746      8748      8746      8749      8749      8750
      8749      8751      8749      8752      8752      8753      8752      8754
      8754      8755      8754      8756      8756      8757      8756      8758
      8756      8759      8759      8760      8759      8761      8759      8762
      8762      8763      8762      8764      8762      8765      8765      8766
      8765      8767      8765      8768      8768      8769      8768      8770
      8768      8771      8771      8772      8771      8773      8771      8774
      8774      8775      8774      8776      8774      8777      8777      8778
      8777      8779      8777      8780      8781      8785      8781      8789
      8781      8793      8785      8786      8785      8787      8785      8788
      8789      8790      8789      8791      8789      8792      8793      8794
      8793      8795      8793      8796      8781      8782      8782      8783
      8782      8784      8782      8797      8797      8798      8797      8799
      8797      8803      8804      8805      8803      8800      8800      8804
      8800      8801      8800      8802      8805      8806      8805      8807
      8805      8808      8808      8809      8808      8816      8808      8810
      8816      8817      8816      8818      8816      8819      8810      8811
      8811      8813      8811      8812      8813      8814      8813      8815
      8813      8825      8825      8826      8825      8827      8825      8828
      8828      8829      8828      8830      8828      8831      8831      8832
      8831      8833      8831      8834      8834      8835      8834      8836
      8834      8837      8837      8838      8837      8839      8837      8840
      8840      8841      8840      8842      8840      8843      8843      8844
      8843      8845      8845      8846      8845      8847      8847      8848
      8847      8849      8847      8850      8850      8851      8850      8852
      8850      8853      8853      8854      8853      8855      8853      8856
      8856      8857      8856      8858      8856      8859      8859      8860
      8859      8861      8859      8862      8862      8863      8862      8864
      8862      8865      8865      8866      8865      8867      8865      8868
      8868      8869      8868      8870      8868      8871      8819      8820
      8820      8822      8820      8821      8822      8823      8822      8824
      8822      8872      8872      8873      8872      8874      8872      8875
      8875      8876      8875      8877      8875      8878      8878      8879
      8878      8880      8878      8881      8881      8882      8881      8883
      8881      8884      8884      8885      8884      8886      8884      8887
      8887      8888      8887      8889      8887      8890      8890      8891
      8890      8892      8892      8893      8892      8894      8894      8895
      8894      8896      8894      8897      8897      8898      8897      8899
      8897      8900      8900      8901      8900      8902      8900      8903
      8903      8904      8903      8905      8903      8906      8906      8907
      8906      8908      8906      8909      8909      8910      8909      8911
      8909      8912      8912      8913      8912      8914      8912      8915
      8915      8916      8915      8917      8915      8918      8919      8923
      8919      8927      8919      8931      8923      8924      8923      8925
      8923      8926      8927      8928      8927      8929      8927      8930
      8931      8932      8931      8933      8931      8934      8919      8920
      8920      8921      8920      8922      8920      8935      8935      8936
      8935      8937      8935      8941      8942      8943      8941      8938
      8938      8942      8938      8939      8938      8940      8943      8944
      8943      8945      8943      8946      8946      8947      8946      8954
      8946      8948      8954      8955      8954      8956      8954      8957
      8948      8949      8949      8951      8949      8950      8951      8952
      8951      8953      8951      8963      8963      8964      8963      8965
      8963      8966      8966      8967      8966      8968      8966      8969
      8969      8970      8969      8971      8969      8972      8972      8973
      8972      8974      8972      8975      8975      8976      8975      8977
      8975      8978      8978      8979      8978      8980      8978      8981
      8981      8982      8981      8983      8983      8984      8983      8985
      8985      8986      8985      8987      8985      8988      8988      8989
      8988      8990      8988      8991      8991      8992      8991      8993
      8991      8994      8994      8995      8994      8996      8994      8997
      8997      8998      8997      8999      8997      9000      9000      9001
      9000      9002      9000      9003      9003      9004      9003      9005
      9003      9006      9006      9007      9006      9008      9006      9009
      8957      8958      8958      8960      8958      8959      8960      8961
      8960      8962      8960      9010      9010      9011      9010      9012
      9010      9013      9013      9014      9013      9015      9013      9016
      9016      9017      9016      9018      9016      9019      9019      9020
      9019      9021      9019      9022      9022      9023      9022      9024
      9022      9025      9025      9026      9025      9027      9025      9028
      9028      9029      9028      9030      9030      9031      9030      9032
      9032      9033      9032      9034      9032      9035      9035      9036
      9035      9037      9035      9038      9038      9039      9038      9040
      9038      9041      9041      9042      9041      9043      9041      9044
      9044      9045      9044      9046      9044      9047      9047      9048
      9047      9049      9047      9050      9050      9051      9050      9052
      9050      9053      9053      9054      9053      9055      9053      9056
      9057      9061      9057      9065      9057      9069      9061      9062
      9061      9063      9061      9064      9065      9066      9065      9067
      9065      9068      9069      9070      9069      9071      9069      9072
      9057      9058      9058      9059      9058      9060      9058      9073
      9073      9074      9073      9075      9073      9079      9080      9081
      9079      9076      9076      9080      9076      9077      9076      9078
      9081      9082      9081      9083      9081      9084      9084      9085
      9084      9092      9084      9086      9092      9093      9092      9094
      9092      9095      9086      9087      9087      9089      9087      9088
      9089      9090      9089      9091      9089      9101      9101      9102
      9101      9103      9101      9104      9104      9105      9104      9106
      9104      9107      9107      9108      9107      9109      9107      9110
      9110      9111      9110      9112      9110      9113      9113      9114
      9113      9115      9113      9116      9116      9117      9116      9118
      9116      9119      9119      9120      9119      9121      9121      9122
      9121      9123      9123      9124      9123      9125      9123      9126
      9126      9127      9126      9128      9126      9129      9129      9130
      9129      9131      9129      9132      9132      9133      9132      9134
      9132      9135      9135      9136      9135      9137      9135      9138
      9138      9139      9138      9140      9138      9141      9141      9142
      9141      9143      9141      9144      9144      9145      9144      9146
      9144      9147      9095      9096      9096      9098      9096      9097
      9098      9099      9098      9100      9098      9148      9148      9149
      9148      9150      9148      9151      9151      9152      9151      9153
      9151      9154      9154      9155      9154      9156      9154      9157
      9157      9158      9157      9159      9157      9160      9160      9161
      9160      9162      9160      9163      9163      9164      9163      9165
      9163      9166      9166      9167      9166      9168      9168      9169
      9168      9170      9170      9171      9170      9172      9170      9173
      9173      9174      9173      9175      9173      9176      9176      9177
      9176      9178      9176      9179      9179      9180      9179      9181
      9179      9182      9182      9183      9182      9184      9182      9185
      9185      9186      9185      9187      9185      9188      9188      9189
      9188      9190      9188      9191      9191      9192      9191      9193
      9191      9194      9195      9199      9195      9203      9195      9207
      9199      9200      9199      9201      9199      9202      9203      9204
      9203      9205      9203      9206      9207      9208      9207      9209
      9207      9210      9195      9196      9196      9197      9196      9198
      9196      9211      9211      9212      9211      9213      9211      9217
      9218      9219      9217      9214      9214      9218      9214      9215
      9214      9216      9219      9220      9219      9221      9219      9222
      9222      9223      9222      9230      9222      9224      9230      9231
      9230      9232      9230      9233      9224      9225      9225      9227
      9225      9226      9227      9228      9227      9229      9227      9239
      9239      9240      9239      9241      9239      9242      9242      9243
      9242      9244      9242      9245      9245      9246      9245      9247
      9245      9248      9248      9249      9248      9250      9248      9251
      9251      9252      9251      9253      9251      9254      9254      9255
      9254      9256      9254      9257      9257      9258      9257      9259
      9259      9260      9259      9261      9261      9262      9261      9263
      9261      9264      9264      9265      9264      9266      9264      9267
      9267      9268      9267      9269      9267      9270      9270      9271
      9270      9272      9270      9273      9273      9274      9273      9275
      9273      9276      9276      9277      9276      9278      9276      9279
      9279      9280      9279      9281      9279      9282      9282      9283
      9282      9284      9282      9285      9233      9234      9234      9236
      9234      9235      9236      9237      9236      9238      9236      9286
      9286      9287      9286      9288      9286      9289      9289      9290
      9289      9291      9289      9292      9292      9293      9292      9294
      9292      9295      9295      9296      9295      9297      9295      9298
      9298      9299      9298      9300      9298      9301      9301      9302
      9301      9303      9301      9304      9304      9305      9304      9306
      9306      9307      9306      9308      9308      9309      9308      9310
      9308      9311      9311      9312      9311      9313      9311      9314
      9314      9315      9314      9316      9314      9317      9317      9318
      9317      9319      9317      9320      9320      9321      9320      9322
      9320      9323      9323      9324      9323      9325      9323      9326
      9326      9327      9326      9328      9326      9329      9329      9330
      9329      9331      9329      9332      9333      9337      9333      9341
      9333      9345      9337      9338      9337      9339      9337      9340
      9341      9342      9341      9343      9341      9344      9345      9346
      9345      9347      9345      9348      9333      9334      9334      9335
      9334      9336      9334      9349      9349      9350      9349      9351
      9349      9355      9356      9357      9355      9352      9352      9356
      9352      9353      9352      9354      9357      9358      9357      9359
      9357      9360      9360      9361      9360      9368      9360      9362
      9368      9369      9368      9370      9368      9371      9362      9363
      9363      9365      9363      9364      9365      9366      9365      9367
      9365      9377      9377      9378      9377      9379      9377      9380
      9380      9381      9380      9382      9380      9383      9383      9384
      9383      9385      9383      9386      9386      9387      9386      9388
      9386      9389      9389      9390      9389      9391      9389      9392
      9392      9393      9392      9394      9392      9395      9395      9396
      9395      9397      9397      9398      9397      9399      9399      9400
      9399      9401      9399      9402      9402      9403      9402      9404
      9402      9405      9405      9406      9405      9407      9405      9408
      9408      9409      9408      9410      9408      9411      9411      9412
      9411      9413      9411      9414      9414      9415      9414      9416
      9414      9417      9417      9418      9417      9419      9417      9420
      9420      9421      9420      9422      9420      9423      9371      9372
      9372      9374      9372      9373      9374      9375      9374      9376
      9374      9424      9424      9425      9424      9426      9424      9427
      9427      9428      9427      9429      9427      9430      9430      9431
      9430      9432      9430      9433      9433      9434      9433      9435
      9433      9436      9436      9437      9436      9438      9436      9439
      9439      9440      9439      9441      9439      9442      9442      9443
      9442      9444      9444      9445      9444      9446      9446      9447
      9446      9448      9446      9449      9449      9450      9449      9451
      9449      9452      9452      9453      9452      9454      9452      9455
      9455      9456      9455      9457      9455      9458      9458      9459
      9458      9460      9458      9461      9461      9462      9461      9463
      9461      9464      9464      9465      9464      9466      9464      9467
      9467      9468      9467      9469      9467      9470      9471      9475
      9471      9479      9471      9483      9475      9476      9475      9477
      9475      9478      9479      9480      9479      9481      9479      9482
      9483      9484      9483      9485      9483      9486      9471      9472
      9472      9473      9472      9474      9472      9487      9487      9488
      9487      9489      9487      9493      9494      9495      9493      9490
      9490      9494      9490      9491      9490      9492      9495      9496
      9495      9497      9495      9498      9498      9499      9498      9506
      9498      9500      9506      9507      9506      9508      9506      9509
      9500      9501      9501      9503      9501      9502      9503      9504
      9503      9505      9503      9515      9515      9516      9515      9517
      9515      9518      9518      9519      9518      9520      9518      9521
      9521      9522      9521      9523      9521      9524      9524      9525
      9524      9526      9524      9527      9527      9528      9527      9529
      9527      9530      9530      9531      9530      9532      9530      9533
      9533      9534      9533      9535      9535      9536      9535      9537
      9537      9538      9537      9539      9537      9540      9540      9541
      9540      9542      9540      9543      9543      9544      9543      9545
      9543      9546      9546      9547      9546      9548      9546      9549
      9549      9550      9549      9551      9549      9552      9552      9553
      9552      9554      9552      9555      9555      9556      9555      9557
      9555      9558      9558      9559      9558      9560      9558      9561
      9509      9510      9510      9512      9510      9511      9512      9513
      9512      9514      9512      9562      9562      9563      9562      9564
      9562      9565      9565      9566      9565      9567      9565      9568
      9568      9569      9568      9570      9568      9571      9571      9572
      9571      9573      9571      9574      9574      9575      9574      9576
      9574      9577      9577      9578      9577      9579      9577      9580
      9580      9581      9580      9582      9582      9583      9582      9584
      9584      9585      9584      9586      9584      9587      9587      9588
      9587      9589      9587      9590      9590      9591      9590      9592
      9590      9593      9593      9594      9593      9595      9593      9596
      9596      9597      9596      9598      9596      9599      9599      9600
      9599      9601      9599      9602      9602      9603      9602      9604
      9602      9605      9605      9606      9605      9607      9605      9608
      9609      9613      9609      9617      9609      9621      9613      9614
      9613      9615      9613      9616      9617      9618      9617      9619
      9617      9620      9621      9622      9621      9623      9621      9624
      9609      9610      9610      9611      9610      9612      9610      9625
      9625      9626      9625      9627      9625      9631      9632      9633
      9631      9628      9628      9632      9628      9629      9628      9630
      9633      9634      9633      9635      9633      9636      9636      9637
      9636      9644      9636      9638      9644      9645      9644      9646
      9644      9647      9638      9639      9639      9641      9639      9640
      9641      9642      9641      9643      9641      9653      9653      9654
      9653      9655      9653      9656      9656      9657      9656      9658
      9656      9659      9659      9660      9659      9661      9659      9662
      9662      9663      9662      9664      9662      9665      9665      9666
      9665      9667      9665      9668      9668      9669      9668      9670
      9668      9671      9671      9672      9671      9673      9673      9674
      9673      9675      9675      9676      9675      9677      9675      9678
      9678      9679      9678      9680      9678      9681      9681      9682
      9681      9683      9681      9684      9684      9685      9684      9686
      9684      9687      9687      9688      9687      9689      9687      9690
      9690      9691      9690      9692      9690      9693      9693      9694
      9693      9695      9693      9696      9696      9697      9696      9698
      9696      9699      9647      9648      9648      9650      9648      9649
      9650      9651      9650      9652      9650      9700      9700      9701
      9700      9702      9700      9703      9703      9704      9703      9705
      9703      9706      9706      9707      9706      9708      9706      9709
      9709      9710      9709      9711      9709      9712      9712      9713
      9712      9714      9712      9715      9715      9716      9715      9717
      9715      9718      9718      9719      9718      9720      9720      9721
      9720      9722      9722      9723      9722      9724      9722      9725
      9725      9726      9725      9727      9725      9728      9728      9729
      9728      9730      9728      9731      9731      9732      9731      9733
      9731      9734      9734      9735      9734      9736      9734      9737
      9737      9738      9737      9739      9737      9740      9740      9741
      9740      9742      9740      9743      9743      9744      9743      9745
      9743      9746      9747      9751      9747      9755      9747      9759
      9751      9752      9751      9753      9751      9754      9755      9756
      9755      9757      9755      9758      9759      9760      9759      9761
      9759      9762      9747      9748      9748      9749      9748      9750
      9748      9763      9763      9764      9763      9765      9763      9769
      9770      9771      9769      9766      9766      9770      9766      9767
      9766      9768      9771      9772      9771      9773      9771      9774
      9774      9775      9774      9782      9774      9776      9782      9783
      9782      9784      9782      9785      9776      9777      9777      9779
      9777      9778      9779      9780      9779      9781      9779      9791
      9791      9792      9791      9793      9791      9794      9794      9795
      9794      9796      9794      9797      9797      9798      9797      9799
      9797      9800      9800      9801      9800      9802      9800      9803
      9803      9804      9803      9805      9803      9806      9806      9807
      9806      9808      9806      9809      9809      9810      9809      9811
      9811      9812      9811      9813      9813      9814      9813      9815
      9813      9816      9816      9817      9816      9818      9816      9819
      9819      9820      9819      9821      9819      9822      9822      9823
      9822      9824      9822      9825      9825      9826      9825      9827
      9825      9828      9828      9829      9828      9830      9828      9831
      9831      9832      9831      9833      9831      9834      9834      9835
      9834      9836      9834      9837      9785      9786      9786      9788
      9786      9787      9788      9789      9788      9790      9788      9838
      9838      9839      9838      9840      9838      9841      9841      9842
      9841      9843      9841      9844      9844      9845      9844      9846
      9844      9847      9847      9848      9847      9849      9847      9850
      9850      9851      9850      9852      9850      9853      9853      9854
      9853      9855      9853      9856      9856      9857      9856      9858
      9858      9859      9858      9860      9860      9861      9860      9862
      9860      9863      9863      9864      9863      9865      9863      9866
      9866      9867      9866      9868      9866      9869      9869      9870
      9869      9871      9869      9872      9872      9873      9872      9874
      9872      9875      9875      9876      9875      9877      9875      9878
      9878      9879      9878      9880      9878      9881      9881      9882
      9881      9883      9881      9884      9885      9889      9885      9893
      9885      9897      9889      9890      9889      9891      9889      9892
      9893      9894      9893      9895      9893      9896      9897      9898
      9897      9899      9897      9900      9885      9886      9886      9887
      9886      9888      9886      9901      9901      9902      9901      9903
      9901      9907      9908      9909      9907      9904      9904      9908
      9904      9905      9904      9906      9909      9910      9909      9911
      9909      9912      9912      9913      9912      9920      9912      9914
      9920      9921      9920      9922      9920      9923      9914      9915
      9915      9917      9915      9916      9917      9918      9917      9919
      9917      9929      9929      9930      9929      9931      9929      9932
      9932      9933      9932      9934      9932      9935      9935      9936
      9935      9937      9935      9938      9938      9939      9938      9940
      9938      9941      9941      9942      9941      9943      9941      9944
      9944      9945      9944      9946      9944      9947      9947      9948
      9947      9949      9949      9950      9949      9951      9951      9952
      9951      9953      9951      9954      9954      9955      9954      9956
      9954      9957      9957      9958      9957      9959      9957      9960
      9960      9961      9960      9962      9960      9963      9963      9964
      9963      9965      9963      9966      9966      9967      9966      9968
      9966      9969      9969      9970      9969      9971      9969      9972
      9972      9973      9972      9974      9972      9975      9923      9924
      9924      9926      9924      9925      9926      9927      9926      9928
      9926      9976      9976      9977      9976      9978      9976      9979
      9979      9980      9979      9981      9979      9982      9982      9983
      9982      9984      9982      9985      9985      9986      9985      9987
      9985      9988      9988      9989      9988      9990      9988      9991
      9991      9992      9991      9993      9991      9994      9994      9995
      9994      9996      9996      9997      9996      9998      9998      9999
      9998     10000      9998     10001     10001     10002     10001     10003
     10001     10004     10004     10005     10004     10006     10004     10007
     10007     10008     10007     10009     10007     10010     10010     10011
     10010     10012     10010     10013     10013     10014     10013     10015
     10013     10016     10016     10017     10016     10018     10016     10019
     10019     10020     10019     10021     10019     10022     10023     10027
     10023     10031     10023     10035     10027     10028     10027     10029
     10027     10030     10031     10032     10031     10033     10031     10034
     10035     10036     10035     10037     10035     10038     10023     10024
     10024     10025     10024     10026     10024     10039     10039     10040
     10039     10041     10039     10045     10046     10047     10045     10042
     10042     10046     10042     10043     10042     10044     10047     10048
     10047     10049     10047     10050     10050     10051     10050     10058
     10050     10052     10058     10059     10058     10060     10058     10061
     10052     10053     10053     10055     10053     10054     10055     10056
     10055     10057     10055     10067     10067     10068     10067     10069
     10067     10070     10070     10071     10070     10072     10070     10073
     10073     10074     10073     10075     10073     10076     10076     10077
     10076     10078     10076     10079     10079     10080     10079     10081
     10079     10082     10082     10083     10082     10084     10082     10085
     10085     10086     10085     10087     10087     10088     10087     10089
     10089     10090     10089     10091     10089     10092     10092     10093
     10092     10094     10092     10095     10095     10096     10095     10097
     10095     10098     10098     10099     10098     10100     10098     10101
     10101     10102     10101     10103     10101     10104     10104     10105
     10104     10106     10104     10107     10107     10108     10107     10109
     10107     10110     10110     10111     10110     10112     10110     10113
     10061     10062     10062     10064     10062     10063     10064     10065
     10064     10066     10064     10114     10114     10115     10114     10116
     10114     10117     10117     10118     10117     10119     10117     10120
     10120     10121     10120     10122     10120     10123     10123     10124
     10123     10125     10123     10126     10126     10127     10126     10128
     10126     10129     10129     10130     10129     10131     10129     10132
     10132     10133     10132     10134     10134     10135     10134     10136
     10136     10137     10136     10138     10136     10139     10139     10140
     10139     10141     10139     10142     10142     10143     10142     10144
     10142     10145     10145     10146     10145     10147     10145     10148
     10148     10149     10148     10150     10148     10151     10151     10152
     10151     10153     10151     10154     10154     10155     10154     10156
     10154     10157     10157     10158     10157     10159     10157     10160
     10161     10165     10161     10169     10161     10173     10165     10166
     10165     10167     10165     10168     10169     10170     10169     10171
     10169     10172     10173     10174     10173     10175     10173     10176
     10161     10162     10162     10163     10162     10164     10162     10177
     10177     10178     10177     10179     10177     10183     10184     10185
     10183     10180     10180     10184     10180     10181     10180     10182
     10185     10186     10185     10187     10185     10188     10188     10189
     10188     10196     10188     10190     10196     10197     10196     10198
     10196     10199     10190     10191     10191     10193     10191     10192
     10193     10194     10193     10195     10193     10205     10205     10206
     10205     10207     10205     10208     10208     10209     10208     10210
     10208     10211     10211     10212     10211     10213     10211     10214
     10214     10215     10214     10216     10214     10217     10217     10218
     10217     10219     10217     10220     10220     10221     10220     10222
     10220     10223     10223     10224     10223     10225     10225     10226
     10225     10227     10227     10228     10227     10229     10227     10230
     10230     10231     10230     10232     10230     10233     10233     10234
     10233     10235     10233     10236     10236     10237     10236     10238
     10236     10239     10239     10240     10239     10241     10239     10242
     10242     10243     10242     10244     10242     10245     10245     10246
     10245     10247     10245     10248     10248     10249     10248     10250
     10248     10251     10199     10200     10200     10202     10200     10201
     10202     10203     10202     10204     10202     10252     10252     10253
     10252     10254     10252     10255     10255     10256     10255     10257
     10255     10258     10258     10259     10258     10260     10258     10261
     10261     10262     10261     10263     10261     10264     10264     10265
     10264     10266     10264     10267     10267     10268     10267     10269
     10267     10270     10270     10271     10270     10272     10272     10273
     10272     10274     10274     10275     10274     10276     10274     10277
     10277     10278     10277     10279     10277     10280     10280     10281
     10280     10282     10280     10283     10283     10284     10283     10285
     10283     10286     10286     10287     10286     10288     10286     10289
     10289     10290     10289     10291     10289     10292     10292     10293
     10292     10294     10292     10295     10295     10296     10295     10297
     10295     10298     10299     10303     10299     10307     10299     10311
     10303     10304     10303     10305     10303     10306     10307     10308
     10307     10309     10307     10310     10311     10312     10311     10313
     10311     10314     10299     10300     10300     10301     10300     10302
     10300     10315     10315     10316     10315     10317     10315     10321
     10322     10323     10321     10318     10318     10322     10318     10319
     10318     10320     10323     10324     10323     10325     10323     10326
     10326     10327     10326     10334     10326     10328     10334     10335
     10334     10336     10334     10337     10328     10329     10329     10331
     10329     10330     10331     10332     10331     10333     10331     10343
     10343     10344     10343     10345     10343     10346     10346     10347
     10346     10348     10346     10349     10349     10350     10349     10351
     10349     10352     10352     10353     10352     10354     10352     10355
     10355     10356     10355     10357     10355     10358     10358     10359
     10358     10360     10358     10361     10361     10362     10361     10363
     10363     10364     10363     10365     10365     10366     10365     10367
     10365     10368     10368     10369     10368     10370     10368     10371
     10371     10372     10371     10373     10371     10374     10374     10375
     10374     10376     10374     10377     10377     10378     10377     10379
     10377     10380     10380     10381     10380     10382     10380     10383
     10383     10384     10383     10385     10383     10386     10386     10387
     10386     10388     10386     10389     10337     10338     10338     10340
     10338     10339     10340     10341     10340     10342     10340     10390
     10390     10391     10390     10392     10390     10393     10393     10394
     10393     10395     10393     10396     10396     10397     10396     10398
     10396     10399     10399     10400     10399     10401     10399     10402
     10402     10403     10402     10404     10402     10405     10405     10406
     10405     10407     10405     10408     10408     10409     10408     10410
     10410     10411     10410     10412     10412     10413     10412     10414
     10412     10415     10415     10416     10415     10417     10415     10418
     10418     10419     10418     10420     10418     10421     10421     10422
     10421     10423     10421     10424     10424     10425     10424     10426
     10424     10427     10427     10428     10427     10429     10427     10430
     10430     10431     10430     10432     10430     10433     10433     10434
     10433     10435     10433     10436     10437     10441     10437     10445
     10437     10449     10441     10442     10441     10443     10441     10444
     10445     10446     10445     10447     10445     10448     10449     10450
     10449     10451     10449     10452     10437     10438     10438     10439
     10438     10440     10438     10453     10453     10454     10453     10455
     10453     10459     10460     10461     10459     10456     10456     10460
     10456     10457     10456     10458     10461     10462     10461     10463
     10461     10464     10464     10465     10464     10472     10464     10466
     10472     10473     10472     10474     10472     10475     10466     10467
     10467     10469     10467     10468     10469     10470     10469     10471
     10469     10481     10481     10482     10481     10483     10481     10484
     10484     10485     10484     10486     10484     10487     10487     10488
     10487     10489     10487     10490     10490     10491     10490     10492
     10490     10493     10493     10494     10493     10495     10493     10496
     10496     10497     10496     10498     10496     10499     10499     10500
     10499     10501     10501     10502     10501     10503     10503     10504
     10503     10505     10503     10506     10506     10507     10506     10508
     10506     10509     10509     10510     10509     10511     10509     10512
     10512     10513     10512     10514     10512     10515     10515     10516
     10515     10517     10515     10518     10518     10519     10518     10520
     10518     10521     10521     10522     10521     10523     10521     10524
     10524     10525     10524     10526     10524     10527     10475     10476
     10476     10478     10476     10477     10478     10479     10478     10480
     10478     10528     10528     10529     10528     10530     10528     10531
     10531     10532     10531     10533     10531     10534     10534     10535
     10534     10536     10534     10537     10537     10538     10537     10539
     10537     10540     10540     10541     10540     10542     10540     10543
     10543     10544     10543     10545     10543     10546     10546     10547
     10546     10548     10548     10549     10548     10550     10550     10551
     10550     10552     10550     10553     10553     10554     10553     10555
     10553     10556     10556     10557     10556     10558     10556     10559
     10559     10560     10559     10561     10559     10562     10562     10563
     10562     10564     10562     10565     10565     10566     10565     10567
     10565     10568     10568     10569     10568     10570     10568     10571
     10571     10572     10571     10573     10571     10574     10575     10579
     10575     10583     10575     10587     10579     10580     10579     10581
     10579     10582     10583     10584     10583     10585     10583     10586
     10587     10588     10587     10589     10587     10590     10575     10576
     10576     10577     10576     10578     10576     10591     10591     10592
     10591     10593     10591     10597     10598     10599     10597     10594
     10594     10598     10594     10595     10594     10596     10599     10600
     10599     10601     10599     10602     10602     10603     10602     10610
     10602     10604     10610     10611     10610     10612     10610     10613
     10604     10605     10605     10607     10605     10606     10607     10608
     10607     10609     10607     10619     10619     10620     10619     10621
     10619     10622     10622     10623     10622     10624     10622     10625
     10625     10626     10625     10627     10625     10628     10628     10629
     10628     10630     10628     10631     10631     10632     10631     10633
     10631     10634     10634     10635     10634     10636     10634     10637
     10637     10638     10637     10639     10639     10640     10639     10641
     10641     10642     10641     10643     10641     10644     10644     10645
     10644     10646     10644     10647     10647     10648     10647     10649
     10647     10650     10650     10651     10650     10652     10650     10653
     10653     10654     10653     10655     10653     10656     10656     10657
     10656     10658     10656     10659     10659     10660     10659     10661
     10659     10662     10662     10663     10662     10664     10662     10665
     10613     10614     10614     10616     10614     10615     10616     10617
     10616     10618     10616     10666     10666     10667     10666     10668
     10666     10669     10669     10670     10669     10671     10669     10672
     10672     10673     10672     10674     10672     10675     10675     10676
     10675     10677     10675     10678     10678     10679     10678     10680
     10678     10681     10681     10682     10681     10683     10681     10684
     10684     10685     10684     10686     10686     10687     10686     10688
     10688     10689     10688     10690     10688     10691     10691     10692
     10691     10693     10691     10694     10694     10695     10694     10696
     10694     10697     10697     10698     10697     10699     10697     10700
     10700     10701     10700     10702     10700     10703     10703     10704
     10703     10705     10703     10706     10706     10707     10706     10708
     10706     10709     10709     10710     10709     10711     10709     10712
     10713     10717     10713     10721     10713     10725     10717     10718
     10717     10719     10717     10720     10721     10722     10721     10723
     10721     10724     10725     10726     10725     10727     10725     10728
     10713     10714     10714     10715     10714     10716     10714     10729
     10729     10730     10729     10731     10729     10735     10736     10737
     10735     10732     10732     10736     10732     10733     10732     10734
     10737     10738     10737     10739     10737     10740     10740     10741
     10740     10748     10740     10742     10748     10749     10748     10750
     10748     10751     10742     10743     10743     10745     10743     10744
     10745     10746     10745     10747     10745     10757     10757     10758
     10757     10759     10757     10760     10760     10761     10760     10762
     10760     10763     10763     10764     10763     10765     10763     10766
     10766     10767     10766     10768     10766     10769     10769     10770
     10769     10771     10769     10772     10772     10773     10772     10774
     10772     10775     10775     10776     10775     10777     10777     10778
     10777     10779     10779     10780     10779     10781     10779     10782
     10782     10783     10782     10784     10782     10785     10785     10786
     10785     10787     10785     10788     10788     10789     10788     10790
     10788     10791     10791     10792     10791     10793     10791     10794
     10794     10795     10794     10796     10794     10797     10797     10798
     10797     10799     10797     10800     10800     10801     10800     10802
     10800     10803     10751     10752     10752     10754     10752     10753
     10754     10755     10754     10756     10754     10804     10804     10805
     10804     10806     10804     10807     10807     10808     10807     10809
     10807     10810     10810     10811     10810     10812     10810     10813
     10813     10814     10813     10815     10813     10816     10816     10817
     10816     10818     10816     10819     10819     10820     10819     10821
     10819     10822     10822     10823     10822     10824     10824     10825
     10824     10826     10826     10827     10826     10828     10826     10829
     10829     10830     10829     10831     10829     10832     10832     10833
     10832     10834     10832     10835     10835     10836     10835     10837
     10835     10838     10838     10839     10838     10840     10838     10841
     10841     10842     10841     10843     10841     10844     10844     10845
     10844     10846     10844     10847     10847     10848     10847     10849
     10847     10850     10851     10855     10851     10859     10851     10863
     10855     10856     10855     10857     10855     10858     10859     10860
     10859     10861     10859     10862     10863     10864     10863     10865
     10863     10866     10851     10852     10852     10853     10852     10854
     10852     10867     10867     10868     10867     10869     10867     10873
     10874     10875     10873     10870     10870     10874     10870     10871
     10870     10872     10875     10876     10875     10877     10875     10878
     10878     10879     10878     10886     10878     10880     10886     10887
     10886     10888     10886     10889     10880     10881     10881     10883
     10881     10882     10883     10884     10883     10885     10883     10895
     10895     10896     10895     10897     10895     10898     10898     10899
     10898     10900     10898     10901     10901     10902     10901     10903
     10901     10904     10904     10905     10904     10906     10904     10907
     10907     10908     10907     10909     10907     10910     10910     10911
     10910     10912     10910     10913     10913     10914     10913     10915
     10915     10916     10915     10917     10917     10918     10917     10919
     10917     10920     10920     10921     10920     10922     10920     10923
     10923     10924     10923     10925     10923     10926     10926     10927
     10926     10928     10926     10929     10929     10930     10929     10931
     10929     10932     10932     10933     10932     10934     10932     10935
     10935     10936     10935     10937     10935     10938     10938     10939
     10938     10940     10938     10941     10889     10890     10890     10892
     10890     10891     10892     10893     10892     10894     10892     10942
     10942     10943     10942     10944     10942     10945     10945     10946
     10945     10947     10945     10948     10948     10949     10948     10950
     10948     10951     10951     10952     10951     10953     10951     10954
     10954     10955     10954     10956     10954     10957     10957     10958
     10957     10959     10957     10960     10960     10961     10960     10962
     10962     10963     10962     10964     10964     10965     10964     10966
     10964     10967     10967     10968     10967     10969     10967     10970
     10970     10971     10970     10972     10970     10973     10973     10974
     10973     10975     10973     10976     10976     10977     10976     10978
     10976     10979     10979     10980     10979     10981     10979     10982
     10982     10983     10982     10984     10982     10985     10985     10986
     10985     10987     10985     10988     10989     10993     10989     10997
     10989     11001     10993     10994     10993     10995     10993     10996
     10997     10998     10997     10999     10997     11000     11001     11002
     11001     11003     11001     11004     10989     10990     10990     10991
     10990     10992     10990     11005     11005     11006     11005     11007
     11005     11011     11012     11013     11011     11008     11008     11012
     11008     11009     11008     11010     11013     11014     11013     11015
     11013     11016     11016     11017     11016     11024     11016     11018
     11024     11025     11024     11026     11024     11027     11018     11019
     11019     11021     11019     11020     11021     11022     11021     11023
     11021     11033     11033     11034     11033     11035     11033     11036
     11036     11037     11036     11038     11036     11039     11039     11040
     11039     11041     11039     11042     11042     11043     11042     11044
     11042     11045     11045     11046     11045     11047     11045     11048
     11048     11049     11048     11050     11048     11051     11051     11052
     11051     11053     11053     11054     11053     11055     11055     11056
     11055     11057     11055     11058     11058     11059     11058     11060
     11058     11061     11061     11062     11061     11063     11061     11064
     11064     11065     11064     11066     11064     11067     11067     11068
     11067     11069     11067     11070     11070     11071     11070     11072
     11070     11073     11073     11074     11073     11075     11073     11076
     11076     11077     11076     11078     11076     11079     11027     11028
     11028     11030     11028     11029     11030     11031     11030     11032
     11030     11080     11080     11081     11080     11082     11080     11083
     11083     11084     11083     11085     11083     11086     11086     11087
     11086     11088     11086     11089     11089     11090     11089     11091
     11089     11092     11092     11093     11092     11094     11092     11095
     11095     11096     11095     11097     11095     11098     11098     11099
     11098     11100     11100     11101     11100     11102     11102     11103
     11102     11104     11102     11105     11105     11106     11105     11107
     11105     11108     11108     11109     11108     11110     11108     11111
     11111     11112     11111     11113     11111     11114     11114     11115
     11114     11116     11114     11117     11117     11118     11117     11119
     11117     11120     11120     11121     11120     11122     11120     11123
     11123     11124     11123     11125     11123     11126     11127     11131
     11127     11135     11127     11139     11131     11132     11131     11133
     11131     11134     11135     11136     11135     11137     11135     11138
     11139     11140     11139     11141     11139     11142     11127     11128
     11128     11129     11128     11130     11128     11143     11143     11144
     11143     11145     11143     11149     11150     11151     11149     11146
     11146     11150     11146     11147     11146     11148     11151     11152
     11151     11153     11151     11154     11154     11155     11154     11162
     11154     11156     11162     11163     11162     11164     11162     11165
     11156     11157     11157     11159     11157     11158     11159     11160
     11159     11161     11159     11171     11171     11172     11171     11173
     11171     11174     11174     11175     11174     11176     11174     11177
     11177     11178     11177     11179     11177     11180     11180     11181
     11180     11182     11180     11183     11183     11184     11183     11185
     11183     11186     11186     11187     11186     11188     11186     11189
     11189     11190     11189     11191     11191     11192     11191     11193
     11193     11194     11193     11195     11193     11196     11196     11197
     11196     11198     11196     11199     11199     11200     11199     11201
     11199     11202     11202     11203     11202     11204     11202     11205
     11205     11206     11205     11207     11205     11208     11208     11209
     11208     11210     11208     11211     11211     11212     11211     11213
     11211     11214     11214     11215     11214     11216     11214     11217
     11165     11166     11166     11168     11166     11167     11168     11169
     11168     11170     11168     11218     11218     11219     11218     11220
     11218     11221     11221     11222     11221     11223     11221     11224
     11224     11225     11224     11226     11224     11227     11227     11228
     11227     11229     11227     11230     11230     11231     11230     11232
     11230     11233     11233     11234     11233     11235     11233     11236
     11236     11237     11236     11238     11238     11239     11238     11240
     11240     11241     11240     11242     11240     11243     11243     11244
     11243     11245     11243     11246     11246     11247     11246     11248
     11246     11249     11249     11250     11249     11251     11249     11252
     11252     11253     11252     11254     11252     11255     11255     11256
     11255     11257     11255     11258     11258     11259     11258     11260
     11258     11261     11261     11262     11261     11263     11261     11264
     11265     11269     11265     11273     11265     11277     11269     11270
     11269     11271     11269     11272     11273     11274     11273     11275
     11273     11276     11277     11278     11277     11279     11277     11280
     11265     11266     11266     11267     11266     11268     11266     11281
     11281     11282     11281     11283     11281     11287     11288     11289
     11287     11284     11284     11288     11284     11285     11284     11286
     11289     11290     11289     11291     11289     11292     11292     11293
     11292     11300     11292     11294     11300     11301     11300     11302
     11300     11303     11294     11295     11295     11297     11295     11296
     11297     11298     11297     11299     11297     11309     11309     11310
     11309     11311     11309     11312     11312     11313     11312     11314
     11312     11315     11315     11316     11315     11317     11315     11318
     11318     11319     11318     11320     11318     11321     11321     11322
     11321     11323     11321     11324     11324     11325     11324     11326
     11324     11327     11327     11328     11327     11329     11329     11330
     11329     11331     11331     11332     11331     11333     11331     11334
     11334     11335     11334     11336     11334     11337     11337     11338
     11337     11339     11337     11340     11340     11341     11340     11342
     11340     11343     11343     11344     11343     11345     11343     11346
     11346     11347     11346     11348     11346     11349     11349     11350
     11349     11351     11349     11352     11352     11353     11352     11354
     11352     11355     11303     11304     11304     11306     11304     11305
     11306     11307     11306     11308     11306     11356     11356     11357
     11356     11358     11356     11359     11359     11360     11359     11361
     11359     11362     11362     11363     11362     11364     11362     11365
     11365     11366     11365     11367     11365     11368     11368     11369
     11368     11370     11368     11371     11371     11372     11371     11373
     11371     11374     11374     11375     11374     11376     11376     11377
     11376     11378     11378     11379     11378     11380     11378     11381
     11381     11382     11381     11383     11381     11384     11384     11385
     11384     11386     11384     11387     11387     11388     11387     11389
     11387     11390     11390     11391     11390     11392     11390     11393
     11393     11394     11393     11395     11393     11396     11396     11397
     11396     11398     11396     11399     11399     11400     11399     11401
     11399     11402     11403     11407     11403     11411     11403     11415
     11407     11408     11407     11409     11407     11410     11411     11412
     11411     11413     11411     11414     11415     11416     11415     11417
     11415     11418     11403     11404     11404     11405     11404     11406
     11404     11419     11419     11420     11419     11421     11419     11425
     11426     11427     11425     11422     11422     11426     11422     11423
     11422     11424     11427     11428     11427     11429     11427     11430
     11430     11431     11430     11438     11430     11432     11438     11439
     11438     11440     11438     11441     11432     11433     11433     11435
     11433     11434     11435     11436     11435     11437     11435     11447
     11447     11448     11447     11449     11447     11450     11450     11451
     11450     11452     11450     11453     11453     11454     11453     11455
     11453     11456     11456     11457     11456     11458     11456     11459
     11459     11460     11459     11461     11459     11462     11462     11463
     11462     11464     11462     11465     11465     11466     11465     11467
     11467     11468     11467     11469     11469     11470     11469     11471
     11469     11472     11472     11473     11472     11474     11472     11475
     11475     11476     11475     11477     11475     11478     11478     11479
     11478     11480     11478     11481     11481     11482     11481     11483
     11481     11484     11484     11485     11484     11486     11484     11487
     11487     11488     11487     11489     11487     11490     11490     11491
     11490     11492     11490     11493     11441     11442     11442     11444
     11442     11443     11444     11445     11444     11446     11444     11494
     11494     11495     11494     11496     11494     11497     11497     11498
     11497     11499     11497     11500     11500     11501     11500     11502
     11500     11503     11503     11504     11503     11505     11503     11506
     11506     11507     11506     11508     11506     11509     11509     11510
     11509     11511     11509     11512     11512     11513     11512     11514
     11514     11515     11514     11516     11516     11517     11516     11518
     11516     11519     11519     11520     11519     11521     11519     11522
     11522     11523     11522     11524     11522     11525     11525     11526
     11525     11527     11525     11528     11528     11529     11528     11530
     11528     11531     11531     11532     11531     11533     11531     11534
     11534     11535     11534     11536     11534     11537     11537     11538
     11537     11539     11537     11540     11541     11545     11541     11549
     11541     11553     11545     11546     11545     11547     11545     11548
     11549     11550     11549     11551     11549     11552     11553     11554
     11553     11555     11553     11556     11541     11542     11542     11543
     11542     11544     11542     11557     11557     11558     11557     11559
     11557     11563     11564     11565     11563     11560     11560     11564
     11560     11561     11560     11562     11565     11566     11565     11567
     11565     11568     11568     11569     11568     11576     11568     11570
     11576     11577     11576     11578     11576     11579     11570     11571
     11571     11573     11571     11572     11573     11574     11573     11575
     11573     11585     11585     11586     11585     11587     11585     11588
     11588     11589     11588     11590     11588     11591     11591     11592
     11591     11593     11591     11594     11594     11595     11594     11596
     11594     11597     11597     11598     11597     11599     11597     11600
     11600     11601     11600     11602     11600     11603     11603     11604
     11603     11605     11605     11606     11605     11607     11607     11608
     11607     11609     11607     11610     11610     11611     11610     11612
     11610     11613     11613     11614     11613     11615     11613     11616
     11616     11617     11616     11618     11616     11619     11619     11620
     11619     11621     11619     11622     11622     11623     11622     11624
     11622     11625     11625     11626     11625     11627     11625     11628
     11628     11629     11628     11630     11628     11631     11579     11580
     11580     11582     11580     11581     11582     11583     11582     11584
     11582     11632     11632     11633     11632     11634     11632     11635
     11635     11636     11635     11637     11635     11638     11638     11639
     11638     11640     11638     11641     11641     11642     11641     11643
     11641     11644     11644     11645     11644     11646     11644     11647
     11647     11648     11647     11649     11647     11650     11650     11651
     11650     11652     11652     11653     11652     11654     11654     11655
     11654     11656     11654     11657     11657     11658     11657     11659
     11657     11660     11660     11661     11660     11662     11660     11663
     11663     11664     11663     11665     11663     11666     11666     11667
     11666     11668     11666     11669     11669     11670     11669     11671
     11669     11672     11672     11673     11672     11674     11672     11675
     11675     11676     11675     11677     11675     11678     11679     11683
     11679     11687     11679     11691     11683     11684     11683     11685
     11683     11686     11687     11688     11687     11689     11687     11690
     11691     11692     11691     11693     11691     11694     11679     11680
     11680     11681     11680     11682     11680     11695     11695     11696
     11695     11697     11695     11701     11702     11703     11701     11698
     11698     11702     11698     11699     11698     11700     11703     11704
     11703     11705     11703     11706     11706     11707     11706     11714
     11706     11708     11714     11715     11714     11716     11714     11717
     11708     11709     11709     11711     11709     11710     11711     11712
     11711     11713     11711     11723     11723     11724     11723     11725
     11723     11726     11726     11727     11726     11728     11726     11729
     11729     11730     11729     11731     11729     11732     11732     11733
     11732     11734     11732     11735     11735     11736     11735     11737
     11735     11738     11738     11739     11738     11740     11738     11741
     11741     11742     11741     11743     11743     11744     11743     11745
     11745     11746     11745     11747     11745     11748     11748     11749
     11748     11750     11748     11751     11751     11752     11751     11753
     11751     11754     11754     11755     11754     11756     11754     11757
     11757     11758     11757     11759     11757     11760     11760     11761
     11760     11762     11760     11763     11763     11764     11763     11765
     11763     11766     11766     11767     11766     11768     11766     11769
     11717     11718     11718     11720     11718     11719     11720     11721
     11720     11722     11720     11770     11770     11771     11770     11772
     11770     11773     11773     11774     11773     11775     11773     11776
     11776     11777     11776     11778     11776     11779     11779     11780
     11779     11781     11779     11782     11782     11783     11782     11784
     11782     11785     11785     11786     11785     11787     11785     11788
     11788     11789     11788     11790     11790     11791     11790     11792
     11792     11793     11792     11794     11792     11795     11795     11796
     11795     11797     11795     11798     11798     11799     11798     11800
     11798     11801     11801     11802     11801     11803     11801     11804
     11804     11805     11804     11806     11804     11807     11807     11808
     11807     11809     11807     11810     11810     11811     11810     11812
     11810     11813     11813     11814     11813     11815     11813     11816
     11817     11821     11817     11825     11817     11829     11821     11822
     11821     11823     11821     11824     11825     11826     11825     11827
     11825     11828     11829     11830     11829     11831     11829     11832
     11817     11818     11818     11819     11818     11820     11818     11833
     11833     11834     11833     11835     11833     11839     11840     11841
     11839     11836     11836     11840     11836     11837     11836     11838
     11841     11842     11841     11843     11841     11844     11844     11845
     11844     11852     11844     11846     11852     11853     11852     11854
     11852     11855     11846     11847     11847     11849     11847     11848
     11849     11850     11849     11851     11849     11861     11861     11862
     11861     11863     11861     11864     11864     11865     11864     11866
     11864     11867     11867     11868     11867     11869     11867     11870
     11870     11871     11870     11872     11870     11873     11873     11874
     11873     11875     11873     11876     11876     11877     11876     11878
     11876     11879     11879     11880     11879     11881     11881     11882
     11881     11883     11883     11884     11883     11885     11883     11886
     11886     11887     11886     11888     11886     11889     11889     11890
     11889     11891     11889     11892     11892     11893     11892     11894
     11892     11895     11895     11896     11895     11897     11895     11898
     11898     11899     11898     11900     11898     11901     11901     11902
     11901     11903     11901     11904     11904     11905     11904     11906
     11904     11907     11855     11856     11856     11858     11856     11857
     11858     11859     11858     11860     11858     11908     11908     11909
     11908     11910     11908     11911     11911     11912     11911     11913
     11911     11914     11914     11915     11914     11916     11914     11917
     11917     11918     11917     11919     11917     11920     11920     11921
     11920     11922     11920     11923     11923     11924     11923     11925
     11923     11926     11926     11927     11926     11928     11928     11929
     11928     11930     11930     11931     11930     11932     11930     11933
     11933     11934     11933     11935     11933     11936     11936     11937
     11936     11938     11936     11939     11939     11940     11939     11941
     11939     11942     11942     11943     11942     11944     11942     11945
     11945     11946     11945     11947     11945     11948     11948     11949
     11948     11950     11948     11951     11951     11952     11951     11953
     11951     11954     11955     11959     11955     11963     11955     11967
     11959     11960     11959     11961     11959     11962     11963     11964
     11963     11965     11963     11966     11967     11968     11967     11969
     11967     11970     11955     11956     11956     11957     11956     11958
     11956     11971     11971     11972     11971     11973     11971     11977
     11978     11979     11977     11974     11974     11978     11974     11975
     11974     11976     11979     11980     11979     11981     11979     11982
     11982     11983     11982     11990     11982     11984     11990     11991
     11990     11992     11990     11993     11984     11985     11985     11987
     11985     11986     11987     11988     11987     11989     11987     11999
     11999     12000     11999     12001     11999     12002     12002     12003
     12002     12004     12002     12005     12005     12006     12005     12007
     12005     12008     12008     12009     12008     12010     12008     12011
     12011     12012     12011     12013     12011     12014     12014     12015
     12014     12016     12014     12017     12017     12018     12017     12019
     12019     12020     12019     12021     12021     12022     12021     12023
     12021     12024     12024     12025     12024     12026     12024     12027
     12027     12028     12027     12029     12027     12030     12030     12031
     12030     12032     12030     12033     12033     12034     12033     12035
     12033     12036     12036     12037     12036     12038     12036     12039
     12039     12040     12039     12041     12039     12042     12042     12043
     12042     12044     12042     12045     11993     11994     11994     11996
     11994     11995     11996     11997     11996     11998     11996     12046
     12046     12047     12046     12048     12046     12049     12049     12050
     12049     12051     12049     12052     12052     12053     12052     12054
     12052     12055     12055     12056     12055     12057     12055     12058
     12058     12059     12058     12060     12058     12061     12061     12062
     12061     12063     12061     12064     12064     12065     12064     12066
     12066     12067     12066     12068     12068     12069     12068     12070
     12068     12071     12071     12072     12071     12073     12071     12074
     12074     12075     12074     12076     12074     12077     12077     12078
     12077     12079     12077     12080     12080     12081     12080     12082
     12080     12083     12083     12084     12083     12085     12083     12086
     12086     12087     12086     12088     12086     12089     12089     12090
     12089     12091     12089     12092     12093     12097     12093     12101
     12093     12105     12097     12098     12097     12099     12097     12100
     12101     12102     12101     12103     12101     12104     12105     12106
     12105     12107     12105     12108     12093     12094     12094     12095
     12094     12096     12094     12109     12109     12110     12109     12111
     12109     12115     12116     12117     12115     12112     12112     12116
     12112     12113     12112     12114     12117     12118     12117     12119
     12117     12120     12120     12121     12120     12128     12120     12122
     12128     12129     12128     12130     12128     12131     12122     12123
     12123     12125     12123     12124     12125     12126     12125     12127
     12125     12137     12137     12138     12137     12139     12137     12140
     12140     12141     12140     12142     12140     12143     12143     12144
     12143     12145     12143     12146     12146     12147     12146     12148
     12146     12149     12149     12150     12149     12151     12149     12152
     12152     12153     12152     12154     12152     12155     12155     12156
     12155     12157     12157     12158     12157     12159     12159     12160
     12159     12161     12159     12162     12162     12163     12162     12164
     12162     12165     12165     12166     12165     12167     12165     12168
     12168     12169     12168     12170     12168     12171     12171     12172
     12171     12173     12171     12174     12174     12175     12174     12176
     12174     12177     12177     12178     12177     12179     12177     12180
     12180     12181     12180     12182     12180     12183     12131     12132
     12132     12134     12132     12133     12134     12135     12134     12136
     12134     12184     12184     12185     12184     12186     12184     12187
     12187     12188     12187     12189     12187     12190     12190     12191
     12190     12192     12190     12193     12193     12194     12193     12195
     12193     12196     12196     12197     12196     12198     12196     12199
     12199     12200     12199     12201     12199     12202     12202     12203
     12202     12204     12204     12205     12204     12206     12206     12207
     12206     12208     12206     12209     12209     12210     12209     12211
     12209     12212     12212     12213     12212     12214     12212     12215
     12215     12216     12215     12217     12215     12218     12218     12219
     12218     12220     12218     12221     12221     12222     12221     12223
     12221     12224     12224     12225     12224     12226     12224     12227
     12227     12228     12227     12229     12227     12230     12231     12235
     12231     12239     12231     12243     12235     12236     12235     12237
     12235     12238     12239     12240     12239     12241     12239     12242
     12243     12244     12243     12245     12243     12246     12231     12232
     12232     12233     12232     12234     12232     12247     12247     12248
     12247     12249     12247     12253     12254     12255     12253     12250
     12250     12254     12250     12251     12250     12252     12255     12256
     12255     12257     12255     12258     12258     12259     12258     12266
     12258     12260     12266     12267     12266     12268     12266     12269
     12260     12261     12261     12263     12261     12262     12263     12264
     12263     12265     12263     12275     12275     12276     12275     12277
     12275     12278     12278     12279     12278     12280     12278     12281
     12281     12282     12281     12283     12281     12284     12284     12285
     12284     12286     12284     12287     12287     12288     12287     12289
     12287     12290     12290     12291     12290     12292     12290     12293
     12293     12294     12293     12295     12295     12296     12295     12297
     12297     12298     12297     12299     12297     12300     12300     12301
     12300     12302     12300     12303     12303     12304     12303     12305
     12303     12306     12306     12307     12306     12308     12306     12309
     12309     12310     12309     12311     12309     12312     12312     12313
     12312     12314     12312     12315     12315     12316     12315     12317
     12315     12318     12318     12319     12318     12320     12318     12321
     12269     12270     12270     12272     12270     12271     12272     12273
     12272     12274     12272     12322     12322     12323     12322     12324
     12322     12325     12325     12326     12325     12327     12325     12328
     12328     12329     12328     12330     12328     12331     12331     12332
     12331     12333     12331     12334     12334     12335     12334     12336
     12334     12337     12337     12338     12337     12339     12337     12340
     12340     12341     12340     12342     12342     12343     12342     12344
     12344     12345     12344     12346     12344     12347     12347     12348
     12347     12349     12347     12350     12350     12351     12350     12352
     12350     12353     12353     12354     12353     12355     12353     12356
     12356     12357     12356     12358     12356     12359     12359     12360
     12359     12361     12359     12362     12362     12363     12362     12364
     12362     12365     12365     12366     12365     12367     12365     12368
     12369     12373     12369     12377     12369     12381     12373     12374
     12373     12375     12373     12376     12377     12378     12377     12379
     12377     12380     12381     12382     12381     12383     12381     12384
     12369     12370     12370     12371     12370     12372     12370     12385
     12385     12386     12385     12387     12385     12391     12392     12393
     12391     12388     12388     12392     12388     12389     12388     12390
     12393     12394     12393     12395     12393     12396     12396     12397
     12396     12404     12396     12398     12404     12405     12404     12406
     12404     12407     12398     12399     12399     12401     12399     12400
     12401     12402     12401     12403     12401     12413     12413     12414
     12413     12415     12413     12416     12416     12417     12416     12418
     12416     12419     12419     12420     12419     12421     12419     12422
     12422     12423     12422     12424     12422     12425     12425     12426
     12425     12427     12425     12428     12428     12429     12428     12430
     12428     12431     12431     12432     12431     12433     12433     12434
     12433     12435     12435     12436     12435     12437     12435     12438
     12438     12439     12438     12440     12438     12441     12441     12442
     12441     12443     12441     12444     12444     12445     12444     12446
     12444     12447     12447     12448     12447     12449     12447     12450
     12450     12451     12450     12452     12450     12453     12453     12454
     12453     12455     12453     12456     12456     12457     12456     12458
     12456     12459     12407     12408     12408     12410     12408     12409
     12410     12411     12410     12412     12410     12460     12460     12461
     12460     12462     12460     12463     12463     12464     12463     12465
     12463     12466     12466     12467     12466     12468     12466     12469
     12469     12470     12469     12471     12469     12472     12472     12473
     12472     12474     12472     12475     12475     12476     12475     12477
     12475     12478     12478     12479     12478     12480     12480     12481
     12480     12482     12482     12483     12482     12484     12482     12485
     12485     12486     12485     12487     12485     12488     12488     12489
     12488     12490     12488     12491     12491     12492     12491     12493
     12491     12494     12494     12495     12494     12496     12494     12497
     12497     12498     12497     12499     12497     12500     12500     12501
     12500     12502     12500     12503     12503     12504     12503     12505
     12503     12506     12507     12511     12507     12515     12507     12519
     12511     12512     12511     12513     12511     12514     12515     12516
     12515     12517     12515     12518     12519     12520     12519     12521
     12519     12522     12507     12508     12508     12509     12508     12510
     12508     12523     12523     12524     12523     12525     12523     12529
     12530     12531     12529     12526     12526     12530     12526     12527
     12526     12528     12531     12532     12531     12533     12531     12534
     12534     12535     12534     12542     12534     12536     12542     12543
     12542     12544     12542     12545     12536     12537     12537     12539
     12537     12538     12539     12540     12539     12541     12539     12551
     12551     12552     12551     12553     12551     12554     12554     12555
     12554     12556     12554     12557     12557     12558     12557     12559
     12557     12560     12560     12561     12560     12562     12560     12563
     12563     12564     12563     12565     12563     12566     12566     12567
     12566     12568     12566     12569     12569     12570     12569     12571
     12571     12572     12571     12573     12573     12574     12573     12575
     12573     12576     12576     12577     12576     12578     12576     12579
     12579     12580     12579     12581     12579     12582     12582     12583
     12582     12584     12582     12585     12585     12586     12585     12587
     12585     12588     12588     12589     12588     12590     12588     12591
     12591     12592     12591     12593     12591     12594     12594     12595
     12594     12596     12594     12597     12545     12546     12546     12548
     12546     12547     12548     12549     12548     12550     12548     12598
     12598     12599     12598     12600     12598     12601     12601     12602
     12601     12603     12601     12604     12604     12605     12604     12606
     12604     12607     12607     12608     12607     12609     12607     12610
     12610     12611     12610     12612     12610     12613     12613     12614
     12613     12615     12613     12616     12616     12617     12616     12618
     12618     12619     12618     12620     12620     12621     12620     12622
     12620     12623     12623     12624     12623     12625     12623     12626
     12626     12627     12626     12628     12626     12629     12629     12630
     12629     12631     12629     12632     12632     12633     12632     12634
     12632     12635     12635     12636     12635     12637     12635     12638
     12638     12639     12638     12640     12638     12641     12641     12642
     12641     12643     12641     12644     12645     12649     12645     12653
     12645     12657     12649     12650     12649     12651     12649     12652
     12653     12654     12653     12655     12653     12656     12657     12658
     12657     12659     12657     12660     12645     12646     12646     12647
     12646     12648     12646     12661     12661     12662     12661     12663
     12661     12667     12668     12669     12667     12664     12664     12668
     12664     12665     12664     12666     12669     12670     12669     12671
     12669     12672     12672     12673     12672     12680     12672     12674
     12680     12681     12680     12682     12680     12683     12674     12675
     12675     12677     12675     12676     12677     12678     12677     12679
     12677     12689     12689     12690     12689     12691     12689     12692
     12692     12693     12692     12694     12692     12695     12695     12696
     12695     12697     12695     12698     12698     12699     12698     12700
     12698     12701     12701     12702     12701     12703     12701     12704
     12704     12705     12704     12706     12704     12707     12707     12708
     12707     12709     12709     12710     12709     12711     12711     12712
     12711     12713     12711     12714     12714     12715     12714     12716
     12714     12717     12717     12718     12717     12719     12717     12720
     12720     12721     12720     12722     12720     12723     12723     12724
     12723     12725     12723     12726     12726     12727     12726     12728
     12726     12729     12729     12730     12729     12731     12729     12732
     12732     12733     12732     12734     12732     12735     12683     12684
     12684     12686     12684     12685     12686     12687     12686     12688
     12686     12736     12736     12737     12736     12738     12736     12739
     12739     12740     12739     12741     12739     12742     12742     12743
     12742     12744     12742     12745     12745     12746     12745     12747
     12745     12748     12748     12749     12748     12750     12748     12751
     12751     12752     12751     12753     12751     12754     12754     12755
     12754     12756     12756     12757     12756     12758     12758     12759
     12758     12760     12758     12761     12761     12762     12761     12763
     12761     12764     12764     12765     12764     12766     12764     12767
     12767     12768     12767     12769     12767     12770     12770     12771
     12770     12772     12770     12773     12773     12774     12773     12775
     12773     12776     12776     12777     12776     12778     12776     12779
     12779     12780     12779     12781     12779     12782     12783     12787
     12783     12791     12783     12795     12787     12788     12787     12789
     12787     12790     12791     12792     12791     12793     12791     12794
     12795     12796     12795     12797     12795     12798     12783     12784
     12784     12785     12784     12786     12784     12799     12799     12800
     12799     12801     12799     12805     12806     12807     12805     12802
     12802     12806     12802     12803     12802     12804     12807     12808
     12807     12809     12807     12810     12810     12811     12810     12818
     12810     12812     12818     12819     12818     12820     12818     12821
     12812     12813     12813     12815     12813     12814     12815     12816
     12815     12817     12815     12827     12827     12828     12827     12829
     12827     12830     12830     12831     12830     12832     12830     12833
     12833     12834     12833     12835     12833     12836     12836     12837
     12836     12838     12836     12839     12839     12840     12839     12841
     12839     12842     12842     12843     12842     12844     12842     12845
     12845     12846     12845     12847     12847     12848     12847     12849
     12849     12850     12849     12851     12849     12852     12852     12853
     12852     12854     12852     12855     12855     12856     12855     12857
     12855     12858     12858     12859     12858     12860     12858     12861
     12861     12862     12861     12863     12861     12864     12864     12865
     12864     12866     12864     12867     12867     12868     12867     12869
     12867     12870     12870     12871     12870     12872     12870     12873
     12821     12822     12822     12824     12822     12823     12824     12825
     12824     12826     12824     12874     12874     12875     12874     12876
     12874     12877     12877     12878     12877     12879     12877     12880
     12880     12881     12880     12882     12880     12883     12883     12884
     12883     12885     12883     12886     12886     12887     12886     12888
     12886     12889     12889     12890     12889     12891     12889     12892
     12892     12893     12892     12894     12894     12895     12894     12896
     12896     12897     12896     12898     12896     12899     12899     12900
     12899     12901     12899     12902     12902     12903     12902     12904
     12902     12905     12905     12906     12905     12907     12905     12908
     12908     12909     12908     12910     12908     12911     12911     12912
     12911     12913     12911     12914     12914     12915     12914     12916
     12914     12917     12917     12918     12917     12919     12917     12920
     12921     12925     12921     12929     12921     12933     12925     12926
     12925     12927     12925     12928     12929     12930     12929     12931
     12929     12932     12933     12934     12933     12935     12933     12936
     12921     12922     12922     12923     12922     12924     12922     12937
     12937     12938     12937     12939     12937     12943     12944     12945
     12943     12940     12940     12944     12940     12941     12940     12942
     12945     12946     12945     12947     12945     12948     12948     12949
     12948     12956     12948     12950     12956     12957     12956     12958
     12956     12959     12950     12951     12951     12953     12951     12952
     12953     12954     12953     12955     12953     12965     12965     12966
     12965     12967     12965     12968     12968     12969     12968     12970
     12968     12971     12971     12972     12971     12973     12971     12974
     12974     12975     12974     12976     12974     12977     12977     12978
     12977     12979     12977     12980     12980     12981     12980     12982
     12980     12983     12983     12984     12983     12985     12985     12986
     12985     12987     12987     12988     12987     12989     12987     12990
     12990     12991     12990     12992     12990     12993     12993     12994
     12993     12995     12993     12996     12996     12997     12996     12998
     12996     12999     12999     13000     12999     13001     12999     13002
     13002     13003     13002     13004     13002     13005     13005     13006
     13005     13007     13005     13008     13008     13009     13008     13010
     13008     13011     12959     12960     12960     12962     12960     12961
     12962     12963     12962     12964     12962     13012     13012     13013
     13012     13014     13012     13015     13015     13016     13015     13017
     13015     13018     13018     13019     13018     13020     13018     13021
     13021     13022     13021     13023     13021     13024     13024     13025
     13024     13026     13024     13027     13027     13028     13027     13029
     13027     13030     13030     13031     13030     13032     13032     13033
     13032     13034     13034     13035     13034     13036     13034     13037
     13037     13038     13037     13039     13037     13040     13040     13041
     13040     13042     13040     13043     13043     13044     13043     13045
     13043     13046     13046     13047     13046     13048     13046     13049
     13049     13050     13049     13051     13049     13052     13052     13053
     13052     13054     13052     13055     13055     13056     13055     13057
     13055     13058     13059     13063     13059     13067     13059     13071
     13063     13064     13063     13065     13063     13066     13067     13068
     13067     13069     13067     13070     13071     13072     13071     13073
     13071     13074     13059     13060     13060     13061     13060     13062
     13060     13075     13075     13076     13075     13077     13075     13081
     13082     13083     13081     13078     13078     13082     13078     13079
     13078     13080     13083     13084     13083     13085     13083     13086
     13086     13087     13086     13094     13086     13088     13094     13095
     13094     13096     13094     13097     13088     13089     13089     13091
     13089     13090     13091     13092     13091     13093     13091     13103
     13103     13104     13103     13105     13103     13106     13106     13107
     13106     13108     13106     13109     13109     13110     13109     13111
     13109     13112     13112     13113     13112     13114     13112     13115
     13115     13116     13115     13117     13115     13118     13118     13119
     13118     13120     13118     13121     13121     13122     13121     13123
     13123     13124     13123     13125     13125     13126     13125     13127
     13125     13128     13128     13129     13128     13130     13128     13131
     13131     13132     13131     13133     13131     13134     13134     13135
     13134     13136     13134     13137     13137     13138     13137     13139
     13137     13140     13140     13141     13140     13142     13140     13143
     13143     13144     13143     13145     13143     13146     13146     13147
     13146     13148     13146     13149     13097     13098     13098     13100
     13098     13099     13100     13101     13100     13102     13100     13150
     13150     13151     13150     13152     13150     13153     13153     13154
     13153     13155     13153     13156     13156     13157     13156     13158
     13156     13159     13159     13160     13159     13161     13159     13162
     13162     13163     13162     13164     13162     13165     13165     13166
     13165     13167     13165     13168     13168     13169     13168     13170
     13170     13171     13170     13172     13172     13173     13172     13174
     13172     13175     13175     13176     13175     13177     13175     13178
     13178     13179     13178     13180     13178     13181     13181     13182
     13181     13183     13181     13184     13184     13185     13184     13186
     13184     13187     13187     13188     13187     13189     13187     13190
     13190     13191     13190     13192     13190     13193     13193     13194
     13193     13195     13193     13196     13197     13201     13197     13205
     13197     13209     13201     13202     13201     13203     13201     13204
     13205     13206     13205     13207     13205     13208     13209     13210
     13209     13211     13209     13212     13197     13198     13198     13199
     13198     13200     13198     13213     13213     13214     13213     13215
     13213     13219     13220     13221     13219     13216     13216     13220
     13216     13217     13216     13218     13221     13222     13221     13223
     13221     13224     13224     13225     13224     13232     13224     13226
     13232     13233     13232     13234     13232     13235     13226     13227
     13227     13229     13227     13228     13229     13230     13229     13231
     13229     13241     13241     13242     13241     13243     13241     13244
     13244     13245     13244     13246     13244     13247     13247     13248
     13247     13249     13247     13250     13250     13251     13250     13252
     13250     13253     13253     13254     13253     13255     13253     13256
     13256     13257     13256     13258     13256     13259     13259     13260
     13259     13261     13261     13262     13261     13263     13263     13264
     13263     13265     13263     13266     13266     13267     13266     13268
     13266     13269     13269     13270     13269     13271     13269     13272
     13272     13273     13272     13274     13272     13275     13275     13276
     13275     13277     13275     13278     13278     13279     13278     13280
     13278     13281     13281     13282     13281     13283     13281     13284
     13284     13285     13284     13286     13284     13287     13235     13236
     13236     13238     13236     13237     13238     13239     13238     13240
     13238     13288     13288     13289     13288     13290     13288     13291
     13291     13292     13291     13293     13291     13294     13294     13295
     13294     13296     13294     13297     13297     13298     13297     13299
     13297     13300     13300     13301     13300     13302     13300     13303
     13303     13304     13303     13305     13303     13306     13306     13307
     13306     13308     13308     13309     13308     13310     13310     13311
     13310     13312     13310     13313     13313     13314     13313     13315
     13313     13316     13316     13317     13316     13318     13316     13319
     13319     13320     13319     13321     13319     13322     13322     13323
     13322     13324     13322     13325     13325     13326     13325     13327
     13325     13328     13328     13329     13328     13330     13328     13331
     13331     13332     13331     13333     13331     13334     13335     13339
     13335     13343     13335     13347     13339     13340     13339     13341
     13339     13342     13343     13344     13343     13345     13343     13346
     13347     13348     13347     13349     13347     13350     13335     13336
     13336     13337     13336     13338     13336     13351     13351     13352
     13351     13353     13351     13357     13358     13359     13357     13354
     13354     13358     13354     13355     13354     13356     13359     13360
     13359     13361     13359     13362     13362     13363     13362     13370
     13362     13364     13370     13371     13370     13372     13370     13373
     13364     13365     13365     13367     13365     13366     13367     13368
     13367     13369     13367     13379     13379     13380     13379     13381
     13379     13382     13382     13383     13382     13384     13382     13385
     13385     13386     13385     13387     13385     13388     13388     13389
     13388     13390     13388     13391     13391     13392     13391     13393
     13391     13394     13394     13395     13394     13396     13394     13397
     13397     13398     13397     13399     13399     13400     13399     13401
     13401     13402     13401     13403     13401     13404     13404     13405
     13404     13406     13404     13407     13407     13408     13407     13409
     13407     13410     13410     13411     13410     13412     13410     13413
     13413     13414     13413     13415     13413     13416     13416     13417
     13416     13418     13416     13419     13419     13420     13419     13421
     13419     13422     13422     13423     13422     13424     13422     13425
     13373     13374     13374     13376     13374     13375     13376     13377
     13376     13378     13376     13426     13426     13427     13426     13428
     13426     13429     13429     13430     13429     13431     13429     13432
     13432     13433     13432     13434     13432     13435     13435     13436
     13435     13437     13435     13438     13438     13439     13438     13440
     13438     13441     13441     13442     13441     13443     13441     13444
     13444     13445     13444     13446     13446     13447     13446     13448
     13448     13449     13448     13450     13448     13451     13451     13452
     13451     13453     13451     13454     13454     13455     13454     13456
     13454     13457     13457     13458     13457     13459     13457     13460
     13460     13461     13460     13462     13460     13463     13463     13464
     13463     13465     13463     13466     13466     13467     13466     13468
     13466     13469     13469     13470     13469     13471     13469     13472
     13473     13477     13473     13481     13473     13485     13477     13478
     13477     13479     13477     13480     13481     13482     13481     13483
     13481     13484     13485     13486     13485     13487     13485     13488
     13473     13474     13474     13475     13474     13476     13474     13489
     13489     13490     13489     13491     13489     13495     13496     13497
     13495     13492     13492     13496     13492     13493     13492     13494
     13497     13498     13497     13499     13497     13500     13500     13501
     13500     13508     13500     13502     13508     13509     13508     13510
     13508     13511     13502     13503     13503     13505     13503     13504
     13505     13506     13505     13507     13505     13517     13517     13518
     13517     13519     13517     13520     13520     13521     13520     13522
     13520     13523     13523     13524     13523     13525     13523     13526
     13526     13527     13526     13528     13526     13529     13529     13530
     13529     13531     13529     13532     13532     13533     13532     13534
     13532     13535     13535     13536     13535     13537     13537     13538
     13537     13539     13539     13540     13539     13541     13539     13542
     13542     13543     13542     13544     13542     13545     13545     13546
     13545     13547     13545     13548     13548     13549     13548     13550
     13548     13551     13551     13552     13551     13553     13551     13554
     13554     13555     13554     13556     13554     13557     13557     13558
     13557     13559     13557     13560     13560     13561     13560     13562
     13560     13563     13511     13512     13512     13514     13512     13513
     13514     13515     13514     13516     13514     13564     13564     13565
     13564     13566     13564     13567     13567     13568     13567     13569
     13567     13570     13570     13571     13570     13572     13570     13573
     13573     13574     13573     13575     13573     13576     13576     13577
     13576     13578     13576     13579     13579     13580     13579     13581
     13579     13582     13582     13583     13582     13584     13584     13585
     13584     13586     13586     13587     13586     13588     13586     13589
     13589     13590     13589     13591     13589     13592     13592     13593
     13592     13594     13592     13595     13595     13596     13595     13597
     13595     13598     13598     13599     13598     13600     13598     13601
     13601     13602     13601     13603     13601     13604     13604     13605
     13604     13606     13604     13607     13607     13608     13607     13609
     13607     13610     13611     13615     13611     13619     13611     13623
     13615     13616     13615     13617     13615     13618     13619     13620
     13619     13621     13619     13622     13623     13624     13623     13625
     13623     13626     13611     13612     13612     13613     13612     13614
     13612     13627     13627     13628     13627     13629     13627     13633
     13634     13635     13633     13630     13630     13634     13630     13631
     13630     13632     13635     13636     13635     13637     13635     13638
     13638     13639     13638     13646     13638     13640     13646     13647
     13646     13648     13646     13649     13640     13641     13641     13643
     13641     13642     13643     13644     13643     13645     13643     13655
     13655     13656     13655     13657     13655     13658     13658     13659
     13658     13660     13658     13661     13661     13662     13661     13663
     13661     13664     13664     13665     13664     13666     13664     13667
     13667     13668     13667     13669     13667     13670     13670     13671
     13670     13672     13670     13673     13673     13674     13673     13675
     13675     13676     13675     13677     13677     13678     13677     13679
     13677     13680     13680     13681     13680     13682     13680     13683
     13683     13684     13683     13685     13683     13686     13686     13687
     13686     13688     13686     13689     13689     13690     13689     13691
     13689     13692     13692     13693     13692     13694     13692     13695
     13695     13696     13695     13697     13695     13698     13698     13699
     13698     13700     13698     13701     13649     13650     13650     13652
     13650     13651     13652     13653     13652     13654     13652     13702
     13702     13703     13702     13704     13702     13705     13705     13706
     13705     13707     13705     13708     13708     13709     13708     13710
     13708     13711     13711     13712     13711     13713     13711     13714
     13714     13715     13714     13716     13714     13717     13717     13718
     13717     13719     13717     13720     13720     13721     13720     13722
     13722     13723     13722     13724     13724     13725     13724     13726
     13724     13727     13727     13728     13727     13729     13727     13730
     13730     13731     13730     13732     13730     13733     13733     13734
     13733     13735     13733     13736     13736     13737     13736     13738
     13736     13739     13739     13740     13739     13741     13739     13742
     13742     13743     13742     13744     13742     13745     13745     13746
     13745     13747     13745     13748     13749     13753     13749     13757
     13749     13761     13753     13754     13753     13755     13753     13756
     13757     13758     13757     13759     13757     13760     13761     13762
     13761     13763     13761     13764     13749     13750     13750     13751
     13750     13752     13750     13765     13765     13766     13765     13767
     13765     13771     13772     13773     13771     13768     13768     13772
     13768     13769     13768     13770     13773     13774     13773     13775
     13773     13776     13776     13777     13776     13784     13776     13778
     13784     13785     13784     13786     13784     13787     13778     13779
     13779     13781     13779     13780     13781     13782     13781     13783
     13781     13793     13793     13794     13793     13795     13793     13796
     13796     13797     13796     13798     13796     13799     13799     13800
     13799     13801     13799     13802     13802     13803     13802     13804
     13802     13805     13805     13806     13805     13807     13805     13808
     13808     13809     13808     13810     13808     13811     13811     13812
     13811     13813     13813     13814     13813     13815     13815     13816
     13815     13817     13815     13818     13818     13819     13818     13820
     13818     13821     13821     13822     13821     13823     13821     13824
     13824     13825     13824     13826     13824     13827     13827     13828
     13827     13829     13827     13830     13830     13831     13830     13832
     13830     13833     13833     13834     13833     13835     13833     13836
     13836     13837     13836     13838     13836     13839     13787     13788
     13788     13790     13788     13789     13790     13791     13790     13792
     13790     13840     13840     13841     13840     13842     13840     13843
     13843     13844     13843     13845     13843     13846     13846     13847
     13846     13848     13846     13849     13849     13850     13849     13851
     13849     13852     13852     13853     13852     13854     13852     13855
     13855     13856     13855     13857     13855     13858     13858     13859
     13858     13860     13860     13861     13860     13862     13862     13863
     13862     13864     13862     13865     13865     13866     13865     13867
     13865     13868     13868     13869     13868     13870     13868     13871
     13871     13872     13871     13873     13871     13874     13874     13875
     13874     13876     13874     13877     13877     13878     13877     13879
     13877     13880     13880     13881     13880     13882     13880     13883
     13883     13884     13883     13885     13883     13886     13887     13891
     13887     13895     13887     13899     13891     13892     13891     13893
     13891     13894     13895     13896     13895     13897     13895     13898
     13899     13900     13899     13901     13899     13902     13887     13888
     13888     13889     13888     13890     13888     13903     13903     13904
     13903     13905     13903     13909     13910     13911     13909     13906
     13906     13910     13906     13907     13906     13908     13911     13912
     13911     13913     13911     13914     13914     13915     13914     13922
     13914     13916     13922     13923     13922     13924     13922     13925
     13916     13917     13917     13919     13917     13918     13919     13920
     13919     13921     13919     13931     13931     13932     13931     13933
     13931     13934     13934     13935     13934     13936     13934     13937
     13937     13938     13937     13939     13937     13940     13940     13941
     13940     13942     13940     13943     13943     13944     13943     13945
     13943     13946     13946     13947     13946     13948     13946     13949
     13949     13950     13949     13951     13951     13952     13951     13953
     13953     13954     13953     13955     13953     13956     13956     13957
     13956     13958     13956     13959     13959     13960     13959     13961
     13959     13962     13962     13963     13962     13964     13962     13965
     13965     13966     13965     13967     13965     13968     13968     13969
     13968     13970     13968     13971     13971     13972     13971     13973
     13971     13974     13974     13975     13974     13976     13974     13977
     13925     13926     13926     13928     13926     13927     13928     13929
     13928     13930     13928     13978     13978     13979     13978     13980
     13978     13981     13981     13982     13981     13983     13981     13984
     13984     13985     13984     13986     13984     13987     13987     13988
     13987     13989     13987     13990     13990     13991     13990     13992
     13990     13993     13993     13994     13993     13995     13993     13996
     13996     13997     13996     13998     13998     13999     13998     14000
     14000     14001     14000     14002     14000     14003     14003     14004
     14003     14005     14003     14006     14006     14007     14006     14008
     14006     14009     14009     14010     14009     14011     14009     14012
     14012     14013     14012     14014     14012     14015     14015     14016
     14015     14017     14015     14018     14018     14019     14018     14020
     14018     14021     14021     14022     14021     14023     14021     14024
     14025     14029     14025     14033     14025     14037     14029     14030
     14029     14031     14029     14032     14033     14034     14033     14035
     14033     14036     14037     14038     14037     14039     14037     14040
     14025     14026     14026     14027     14026     14028     14026     14041
     14041     14042     14041     14043     14041     14047     14048     14049
     14047     14044     14044     14048     14044     14045     14044     14046
     14049     14050     14049     14051     14049     14052     14052     14053
     14052     14060     14052     14054     14060     14061     14060     14062
     14060     14063     14054     14055     14055     14057     14055     14056
     14057     14058     14057     14059     14057     14069     14069     14070
     14069     14071     14069     14072     14072     14073     14072     14074
     14072     14075     14075     14076     14075     14077     14075     14078
     14078     14079     14078     14080     14078     14081     14081     14082
     14081     14083     14081     14084     14084     14085     14084     14086
     14084     14087     14087     14088     14087     14089     14089     14090
     14089     14091     14091     14092     14091     14093     14091     14094
     14094     14095     14094     14096     14094     14097     14097     14098
     14097     14099     14097     14100     14100     14101     14100     14102
     14100     14103     14103     14104     14103     14105     14103     14106
     14106     14107     14106     14108     14106     14109     14109     14110
     14109     14111     14109     14112     14112     14113     14112     14114
     14112     14115     14063     14064     14064     14066     14064     14065
     14066     14067     14066     14068     14066     14116     14116     14117
     14116     14118     14116     14119     14119     14120     14119     14121
     14119     14122     14122     14123     14122     14124     14122     14125
     14125     14126     14125     14127     14125     14128     14128     14129
     14128     14130     14128     14131     14131     14132     14131     14133
     14131     14134     14134     14135     14134     14136     14136     14137
     14136     14138     14138     14139     14138     14140     14138     14141
     14141     14142     14141     14143     14141     14144     14144     14145
     14144     14146     14144     14147     14147     14148     14147     14149
     14147     14150     14150     14151     14150     14152     14150     14153
     14153     14154     14153     14155     14153     14156     14156     14157
     14156     14158     14156     14159     14159     14160     14159     14161
     14159     14162     14163     14167     14163     14171     14163     14175
     14167     14168     14167     14169     14167     14170     14171     14172
     14171     14173     14171     14174     14175     14176     14175     14177
     14175     14178     14163     14164     14164     14165     14164     14166
     14164     14179     14179     14180     14179     14181     14179     14185
     14186     14187     14185     14182     14182     14186     14182     14183
     14182     14184     14187     14188     14187     14189     14187     14190
     14190     14191     14190     14198     14190     14192     14198     14199
     14198     14200     14198     14201     14192     14193     14193     14195
     14193     14194     14195     14196     14195     14197     14195     14207
     14207     14208     14207     14209     14207     14210     14210     14211
     14210     14212     14210     14213     14213     14214     14213     14215
     14213     14216     14216     14217     14216     14218     14216     14219
     14219     14220     14219     14221     14219     14222     14222     14223
     14222     14224     14222     14225     14225     14226     14225     14227
     14227     14228     14227     14229     14229     14230     14229     14231
     14229     14232     14232     14233     14232     14234     14232     14235
     14235     14236     14235     14237     14235     14238     14238     14239
     14238     14240     14238     14241     14241     14242     14241     14243
     14241     14244     14244     14245     14244     14246     14244     14247
     14247     14248     14247     14249     14247     14250     14250     14251
     14250     14252     14250     14253     14201     14202     14202     14204
     14202     14203     14204     14205     14204     14206     14204     14254
     14254     14255     14254     14256     14254     14257     14257     14258
     14257     14259     14257     14260     14260     14261     14260     14262
     14260     14263     14263     14264     14263     14265     14263     14266
     14266     14267     14266     14268     14266     14269     14269     14270
     14269     14271     14269     14272     14272     14273     14272     14274
     14274     14275     14274     14276     14276     14277     14276     14278
     14276     14279     14279     14280     14279     14281     14279     14282
     14282     14283     14282     14284     14282     14285     14285     14286
     14285     14287     14285     14288     14288     14289     14288     14290
     14288     14291     14291     14292     14291     14293     14291     14294
     14294     14295     14294     14296     14294     14297     14297     14298
     14297     14299     14297     14300     14301     14305     14301     14309
     14301     14313     14305     14306     14305     14307     14305     14308
     14309     14310     14309     14311     14309     14312     14313     14314
     14313     14315     14313     14316     14301     14302     14302     14303
     14302     14304     14302     14317     14317     14318     14317     14319
     14317     14323     14324     14325     14323     14320     14320     14324
     14320     14321     14320     14322     14325     14326     14325     14327
     14325     14328     14328     14329     14328     14336     14328     14330
     14336     14337     14336     14338     14336     14339     14330     14331
     14331     14333     14331     14332     14333     14334     14333     14335
     14333     14345     14345     14346     14345     14347     14345     14348
     14348     14349     14348     14350     14348     14351     14351     14352
     14351     14353     14351     14354     14354     14355     14354     14356
     14354     14357     14357     14358     14357     14359     14357     14360
     14360     14361     14360     14362     14360     14363     14363     14364
     14363     14365     14365     14366     14365     14367     14367     14368
     14367     14369     14367     14370     14370     14371     14370     14372
     14370     14373     14373     14374     14373     14375     14373     14376
     14376     14377     14376     14378     14376     14379     14379     14380
     14379     14381     14379     14382     14382     14383     14382     14384
     14382     14385     14385     14386     14385     14387     14385     14388
     14388     14389     14388     14390     14388     14391     14339     14340
     14340     14342     14340     14341     14342     14343     14342     14344
     14342     14392     14392     14393     14392     14394     14392     14395
     14395     14396     14395     14397     14395     14398     14398     14399
     14398     14400     14398     14401     14401     14402     14401     14403
     14401     14404     14404     14405     14404     14406     14404     14407
     14407     14408     14407     14409     14407     14410     14410     14411
     14410     14412     14412     14413     14412     14414     14414     14415
     14414     14416     14414     14417     14417     14418     14417     14419
     14417     14420     14420     14421     14420     14422     14420     14423
     14423     14424     14423     14425     14423     14426     14426     14427
     14426     14428     14426     14429     14429     14430     14429     14431
     14429     14432     14432     14433     14432     14434     14432     14435
     14435     14436     14435     14437     14435     14438     14439     14443
     14439     14447     14439     14451     14443     14444     14443     14445
     14443     14446     14447     14448     14447     14449     14447     14450
     14451     14452     14451     14453     14451     14454     14439     14440
     14440     14441     14440     14442     14440     14455     14455     14456
     14455     14457     14455     14461     14462     14463     14461     14458
     14458     14462     14458     14459     14458     14460     14463     14464
     14463     14465     14463     14466     14466     14467     14466     14474
     14466     14468     14474     14475     14474     14476     14474     14477
     14468     14469     14469     14471     14469     14470     14471     14472
     14471     14473     14471     14483     14483     14484     14483     14485
     14483     14486     14486     14487     14486     14488     14486     14489
     14489     14490     14489     14491     14489     14492     14492     14493
     14492     14494     14492     14495     14495     14496     14495     14497
     14495     14498     14498     14499     14498     14500     14498     14501
     14501     14502     14501     14503     14503     14504     14503     14505
     14505     14506     14505     14507     14505     14508     14508     14509
     14508     14510     14508     14511     14511     14512     14511     14513
     14511     14514     14514     14515     14514     14516     14514     14517
     14517     14518     14517     14519     14517     14520     14520     14521
     14520     14522     14520     14523     14523     14524     14523     14525
     14523     14526     14526     14527     14526     14528     14526     14529
     14477     14478     14478     14480     14478     14479     14480     14481
     14480     14482     14480     14530     14530     14531     14530     14532
     14530     14533     14533     14534     14533     14535     14533     14536
     14536     14537     14536     14538     14536     14539     14539     14540
     14539     14541     14539     14542     14542     14543     14542     14544
     14542     14545     14545     14546     14545     14547     14545     14548
     14548     14549     14548     14550     14550     14551     14550     14552
     14552     14553     14552     14554     14552     14555     14555     14556
     14555     14557     14555     14558     14558     14559     14558     14560
     14558     14561     14561     14562     14561     14563     14561     14564
     14564     14565     14564     14566     14564     14567     14567     14568
     14567     14569     14567     14570     14570     14571     14570     14572
     14570     14573     14573     14574     14573     14575     14573     14576
     14577     14581     14577     14585     14577     14589     14581     14582
     14581     14583     14581     14584     14585     14586     14585     14587
     14585     14588     14589     14590     14589     14591     14589     14592
     14577     14578     14578     14579     14578     14580     14578     14593
     14593     14594     14593     14595     14593     14599     14600     14601
     14599     14596     14596     14600     14596     14597     14596     14598
     14601     14602     14601     14603     14601     14604     14604     14605
     14604     14612     14604     14606     14612     14613     14612     14614
     14612     14615     14606     14607     14607     14609     14607     14608
     14609     14610     14609     14611     14609     14621     14621     14622
     14621     14623     14621     14624     14624     14625     14624     14626
     14624     14627     14627     14628     14627     14629     14627     14630
     14630     14631     14630     14632     14630     14633     14633     14634
     14633     14635     14633     14636     14636     14637     14636     14638
     14636     14639     14639     14640     14639     14641     14641     14642
     14641     14643     14643     14644     14643     14645     14643     14646
     14646     14647     14646     14648     14646     14649     14649     14650
     14649     14651     14649     14652     14652     14653     14652     14654
     14652     14655     14655     14656     14655     14657     14655     14658
     14658     14659     14658     14660     14658     14661     14661     14662
     14661     14663     14661     14664     14664     14665     14664     14666
     14664     14667     14615     14616     14616     14618     14616     14617
     14618     14619     14618     14620     14618     14668     14668     14669
     14668     14670     14668     14671     14671     14672     14671     14673
     14671     14674     14674     14675     14674     14676     14674     14677
     14677     14678     14677     14679     14677     14680     14680     14681
     14680     14682     14680     14683     14683     14684     14683     14685
     14683     14686     14686     14687     14686     14688     14688     14689
     14688     14690     14690     14691     14690     14692     14690     14693
     14693     14694     14693     14695     14693     14696     14696     14697
     14696     14698     14696     14699     14699     14700     14699     14701
     14699     14702     14702     14703     14702     14704     14702     14705
     14705     14706     14705     14707     14705     14708     14708     14709
     14708     14710     14708     14711     14711     14712     14711     14713
     14711     14714     14715     14719     14715     14723     14715     14727
     14719     14720     14719     14721     14719     14722     14723     14724
     14723     14725     14723     14726     14727     14728     14727     14729
     14727     14730     14715     14716     14716     14717     14716     14718
     14716     14731     14731     14732     14731     14733     14731     14737
     14738     14739     14737     14734     14734     14738     14734     14735
     14734     14736     14739     14740     14739     14741     14739     14742
     14742     14743     14742     14750     14742     14744     14750     14751
     14750     14752     14750     14753     14744     14745     14745     14747
     14745     14746     14747     14748     14747     14749     14747     14759
     14759     14760     14759     14761     14759     14762     14762     14763
     14762     14764     14762     14765     14765     14766     14765     14767
     14765     14768     14768     14769     14768     14770     14768     14771
     14771     14772     14771     14773     14771     14774     14774     14775
     14774     14776     14774     14777     14777     14778     14777     14779
     14779     14780     14779     14781     14781     14782     14781     14783
     14781     14784     14784     14785     14784     14786     14784     14787
     14787     14788     14787     14789     14787     14790     14790     14791
     14790     14792     14790     14793     14793     14794     14793     14795
     14793     14796     14796     14797     14796     14798     14796     14799
     14799     14800     14799     14801     14799     14802     14802     14803
     14802     14804     14802     14805     14753     14754     14754     14756
     14754     14755     14756     14757     14756     14758     14756     14806
     14806     14807     14806     14808     14806     14809     14809     14810
     14809     14811     14809     14812     14812     14813     14812     14814
     14812     14815     14815     14816     14815     14817     14815     14818
     14818     14819     14818     14820     14818     14821     14821     14822
     14821     14823     14821     14824     14824     14825     14824     14826
     14826     14827     14826     14828     14828     14829     14828     14830
     14828     14831     14831     14832     14831     14833     14831     14834
     14834     14835     14834     14836     14834     14837     14837     14838
     14837     14839     14837     14840     14840     14841     14840     14842
     14840     14843     14843     14844     14843     14845     14843     14846
     14846     14847     14846     14848     14846     14849     14849     14850
     14849     14851     14849     14852     14853     14857     14853     14861
     14853     14865     14857     14858     14857     14859     14857     14860
     14861     14862     14861     14863     14861     14864     14865     14866
     14865     14867     14865     14868     14853     14854     14854     14855
     14854     14856     14854     14869     14869     14870     14869     14871
     14869     14875     14876     14877     14875     14872     14872     14876
     14872     14873     14872     14874     14877     14878     14877     14879
     14877     14880     14880     14881     14880     14888     14880     14882
     14888     14889     14888     14890     14888     14891     14882     14883
     14883     14885     14883     14884     14885     14886     14885     14887
     14885     14897     14897     14898     14897     14899     14897     14900
     14900     14901     14900     14902     14900     14903     14903     14904
     14903     14905     14903     14906     14906     14907     14906     14908
     14906     14909     14909     14910     14909     14911     14909     14912
     14912     14913     14912     14914     14912     14915     14915     14916
     14915     14917     14917     14918     14917     14919     14919     14920
     14919     14921     14919     14922     14922     14923     14922     14924
     14922     14925     14925     14926     14925     14927     14925     14928
     14928     14929     14928     14930     14928     14931     14931     14932
     14931     14933     14931     14934     14934     14935     14934     14936
     14934     14937     14937     14938     14937     14939     14937     14940
     14940     14941     14940     14942     14940     14943     14891     14892
     14892     14894     14892     14893     14894     14895     14894     14896
     14894     14944     14944     14945     14944     14946     14944     14947
     14947     14948     14947     14949     14947     14950     14950     14951
     14950     14952     14950     14953     14953     14954     14953     14955
     14953     14956     14956     14957     14956     14958     14956     14959
     14959     14960     14959     14961     14959     14962     14962     14963
     14962     14964     14964     14965     14964     14966     14966     14967
     14966     14968     14966     14969     14969     14970     14969     14971
     14969     14972     14972     14973     14972     14974     14972     14975
     14975     14976     14975     14977     14975     14978     14978     14979
     14978     14980     14978     14981     14981     14982     14981     14983
     14981     14984     14984     14985     14984     14986     14984     14987
     14987     14988     14987     14989     14987     14990     14991     14995
     14991     14999     14991     15003     14995     14996     14995     14997
     14995     14998     14999     15000     14999     15001     14999     15002
     15003     15004     15003     15005     15003     15006     14991     14992
     14992     14993     14992     14994     14992     15007     15007     15008
     15007     15009     15007     15013     15014     15015     15013     15010
     15010     15014     15010     15011     15010     15012     15015     15016
     15015     15017     15015     15018     15018     15019     15018     15026
     15018     15020     15026     15027     15026     15028     15026     15029
     15020     15021     15021     15023     15021     15022     15023     15024
     15023     15025     15023     15035     15035     15036     15035     15037
     15035     15038     15038     15039     15038     15040     15038     15041
     15041     15042     15041     15043     15041     15044     15044     15045
     15044     15046     15044     15047     15047     15048     15047     15049
     15047     15050     15050     15051     15050     15052     15050     15053
     15053     15054     15053     15055     15055     15056     15055     15057
     15057     15058     15057     15059     15057     15060     15060     15061
     15060     15062     15060     15063     15063     15064     15063     15065
     15063     15066     15066     15067     15066     15068     15066     15069
     15069     15070     15069     15071     15069     15072     15072     15073
     15072     15074     15072     15075     15075     15076     15075     15077
     15075     15078     15078     15079     15078     15080     15078     15081
     15029     15030     15030     15032     15030     15031     15032     15033
     15032     15034     15032     15082     15082     15083     15082     15084
     15082     15085     15085     15086     15085     15087     15085     15088
     15088     15089     15088     15090     15088     15091     15091     15092
     15091     15093     15091     15094     15094     15095     15094     15096
     15094     15097     15097     15098     15097     15099     15097     15100
     15100     15101     15100     15102     15102     15103     15102     15104
     15104     15105     15104     15106     15104     15107     15107     15108
     15107     15109     15107     15110     15110     15111     15110     15112
     15110     15113     15113     15114     15113     15115     15113     15116
     15116     15117     15116     15118     15116     15119     15119     15120
     15119     15121     15119     15122     15122     15123     15122     15124
     15122     15125     15125     15126     15125     15127     15125     15128
     15129     15133     15129     15137     15129     15141     15133     15134
     15133     15135     15133     15136     15137     15138     15137     15139
     15137     15140     15141     15142     15141     15143     15141     15144
     15129     15130     15130     15131     15130     15132     15130     15145
     15145     15146     15145     15147     15145     15151     15152     15153
     15151     15148     15148     15152     15148     15149     15148     15150
     15153     15154     15153     15155     15153     15156     15156     15157
     15156     15164     15156     15158     15164     15165     15164     15166
     15164     15167     15158     15159     15159     15161     15159     15160
     15161     15162     15161     15163     15161     15173     15173     15174
     15173     15175     15173     15176     15176     15177     15176     15178
     15176     15179     15179     15180     15179     15181     15179     15182
     15182     15183     15182     15184     15182     15185     15185     15186
     15185     15187     15185     15188     15188     15189     15188     15190
     15188     15191     15191     15192     15191     15193     15193     15194
     15193     15195     15195     15196     15195     15197     15195     15198
     15198     15199     15198     15200     15198     15201     15201     15202
     15201     15203     15201     15204     15204     15205     15204     15206
     15204     15207     15207     15208     15207     15209     15207     15210
     15210     15211     15210     15212     15210     15213     15213     15214
     15213     15215     15213     15216     15216     15217     15216     15218
     15216     15219     15167     15168     15168     15170     15168     15169
     15170     15171     15170     15172     15170     15220     15220     15221
     15220     15222     15220     15223     15223     15224     15223     15225
     15223     15226     15226     15227     15226     15228     15226     15229
     15229     15230     15229     15231     15229     15232     15232     15233
     15232     15234     15232     15235     15235     15236     15235     15237
     15235     15238     15238     15239     15238     15240     15240     15241
     15240     15242     15242     15243     15242     15244     15242     15245
     15245     15246     15245     15247     15245     15248     15248     15249
     15248     15250     15248     15251     15251     15252     15251     15253
     15251     15254     15254     15255     15254     15256     15254     15257
     15257     15258     15257     15259     15257     15260     15260     15261
     15260     15262     15260     15263     15263     15264     15263     15265
     15263     15266     15267     15271     15267     15275     15267     15279
     15271     15272     15271     15273     15271     15274     15275     15276
     15275     15277     15275     15278     15279     15280     15279     15281
     15279     15282     15267     15268     15268     15269     15268     15270
     15268     15283     15283     15284     15283     15285     15283     15289
     15290     15291     15289     15286     15286     15290     15286     15287
     15286     15288     15291     15292     15291     15293     15291     15294
     15294     15295     15294     15302     15294     15296     15302     15303
     15302     15304     15302     15305     15296     15297     15297     15299
     15297     15298     15299     15300     15299     15301     15299     15311
     15311     15312     15311     15313     15311     15314     15314     15315
     15314     15316     15314     15317     15317     15318     15317     15319
     15317     15320     15320     15321     15320     15322     15320     15323
     15323     15324     15323     15325     15323     15326     15326     15327
     15326     15328     15326     15329     15329     15330     15329     15331
     15331     15332     15331     15333     15333     15334     15333     15335
     15333     15336     15336     15337     15336     15338     15336     15339
     15339     15340     15339     15341     15339     15342     15342     15343
     15342     15344     15342     15345     15345     15346     15345     15347
     15345     15348     15348     15349     15348     15350     15348     15351
     15351     15352     15351     15353     15351     15354     15354     15355
     15354     15356     15354     15357     15305     15306     15306     15308
     15306     15307     15308     15309     15308     15310     15308     15358
     15358     15359     15358     15360     15358     15361     15361     15362
     15361     15363     15361     15364     15364     15365     15364     15366
     15364     15367     15367     15368     15367     15369     15367     15370
     15370     15371     15370     15372     15370     15373     15373     15374
     15373     15375     15373     15376     15376     15377     15376     15378
     15378     15379     15378     15380     15380     15381     15380     15382
     15380     15383     15383     15384     15383     15385     15383     15386
     15386     15387     15386     15388     15386     15389     15389     15390
     15389     15391     15389     15392     15392     15393     15392     15394
     15392     15395     15395     15396     15395     15397     15395     15398
     15398     15399     15398     15400     15398     15401     15401     15402
     15401     15403     15401     15404     15405     15409     15405     15413
     15405     15417     15409     15410     15409     15411     15409     15412
     15413     15414     15413     15415     15413     15416     15417     15418
     15417     15419     15417     15420     15405     15406     15406     15407
     15406     15408     15406     15421     15421     15422     15421     15423
     15421     15427     15428     15429     15427     15424     15424     15428
     15424     15425     15424     15426     15429     15430     15429     15431
     15429     15432     15432     15433     15432     15440     15432     15434
     15440     15441     15440     15442     15440     15443     15434     15435
     15435     15437     15435     15436     15437     15438     15437     15439
     15437     15449     15449     15450     15449     15451     15449     15452
     15452     15453     15452     15454     15452     15455     15455     15456
     15455     15457     15455     15458     15458     15459     15458     15460
     15458     15461     15461     15462     15461     15463     15461     15464
     15464     15465     15464     15466     15464     15467     15467     15468
     15467     15469     15469     15470     15469     15471     15471     15472
     15471     15473     15471     15474     15474     15475     15474     15476
     15474     15477     15477     15478     15477     15479     15477     15480
     15480     15481     15480     15482     15480     15483     15483     15484
     15483     15485     15483     15486     15486     15487     15486     15488
     15486     15489     15489     15490     15489     15491     15489     15492
     15492     15493     15492     15494     15492     15495     15443     15444
     15444     15446     15444     15445     15446     15447     15446     15448
     15446     15496     15496     15497     15496     15498     15496     15499
     15499     15500     15499     15501     15499     15502     15502     15503
     15502     15504     15502     15505     15505     15506     15505     15507
     15505     15508     15508     15509     15508     15510     15508     15511
     15511     15512     15511     15513     15511     15514     15514     15515
     15514     15516     15516     15517     15516     15518     15518     15519
     15518     15520     15518     15521     15521     15522     15521     15523
     15521     15524     15524     15525     15524     15526     15524     15527
     15527     15528     15527     15529     15527     15530     15530     15531
     15530     15532     15530     15533     15533     15534     15533     15535
     15533     15536     15536     15537     15536     15538     15536     15539
     15539     15540     15539     15541     15539     15542     15543     15547
     15543     15551     15543     15555     15547     15548     15547     15549
     15547     15550     15551     15552     15551     15553     15551     15554
     15555     15556     15555     15557     15555     15558     15543     15544
     15544     15545     15544     15546     15544     15559     15559     15560
     15559     15561     15559     15565     15566     15567     15565     15562
     15562     15566     15562     15563     15562     15564     15567     15568
     15567     15569     15567     15570     15570     15571     15570     15578
     15570     15572     15578     15579     15578     15580     15578     15581
     15572     15573     15573     15575     15573     15574     15575     15576
     15575     15577     15575     15587     15587     15588     15587     15589
     15587     15590     15590     15591     15590     15592     15590     15593
     15593     15594     15593     15595     15593     15596     15596     15597
     15596     15598     15596     15599     15599     15600     15599     15601
     15599     15602     15602     15603     15602     15604     15602     15605
     15605     15606     15605     15607     15607     15608     15607     15609
     15609     15610     15609     15611     15609     15612     15612     15613
     15612     15614     15612     15615     15615     15616     15615     15617
     15615     15618     15618     15619     15618     15620     15618     15621
     15621     15622     15621     15623     15621     15624     15624     15625
     15624     15626     15624     15627     15627     15628     15627     15629
     15627     15630     15630     15631     15630     15632     15630     15633
     15581     15582     15582     15584     15582     15583     15584     15585
     15584     15586     15584     15634     15634     15635     15634     15636
     15634     15637     15637     15638     15637     15639     15637     15640
     15640     15641     15640     15642     15640     15643     15643     15644
     15643     15645     15643     15646     15646     15647     15646     15648
     15646     15649     15649     15650     15649     15651     15649     15652
     15652     15653     15652     15654     15654     15655     15654     15656
     15656     15657     15656     15658     15656     15659     15659     15660
     15659     15661     15659     15662     15662     15663     15662     15664
     15662     15665     15665     15666     15665     15667     15665     15668
     15668     15669     15668     15670     15668     15671     15671     15672
     15671     15673     15671     15674     15674     15675     15674     15676
     15674     15677     15677     15678     15677     15679     15677     15680
     15681     15685     15681     15689     15681     15693     15685     15686
     15685     15687     15685     15688     15689     15690     15689     15691
     15689     15692     15693     15694     15693     15695     15693     15696
     15681     15682     15682     15683     15682     15684     15682     15697
     15697     15698     15697     15699     15697     15703     15704     15705
     15703     15700     15700     15704     15700     15701     15700     15702
     15705     15706     15705     15707     15705     15708     15708     15709
     15708     15716     15708     15710     15716     15717     15716     15718
     15716     15719     15710     15711     15711     15713     15711     15712
     15713     15714     15713     15715     15713     15725     15725     15726
     15725     15727     15725     15728     15728     15729     15728     15730
     15728     15731     15731     15732     15731     15733     15731     15734
     15734     15735     15734     15736     15734     15737     15737     15738
     15737     15739     15737     15740     15740     15741     15740     15742
     15740     15743     15743     15744     15743     15745     15745     15746
     15745     15747     15747     15748     15747     15749     15747     15750
     15750     15751     15750     15752     15750     15753     15753     15754
     15753     15755     15753     15756     15756     15757     15756     15758
     15756     15759     15759     15760     15759     15761     15759     15762
     15762     15763     15762     15764     15762     15765     15765     15766
     15765     15767     15765     15768     15768     15769     15768     15770
     15768     15771     15719     15720     15720     15722     15720     15721
     15722     15723     15722     15724     15722     15772     15772     15773
     15772     15774     15772     15775     15775     15776     15775     15777
     15775     15778     15778     15779     15778     15780     15778     15781
     15781     15782     15781     15783     15781     15784     15784     15785
     15784     15786     15784     15787     15787     15788     15787     15789
     15787     15790     15790     15791     15790     15792     15792     15793
     15792     15794     15794     15795     15794     15796     15794     15797
     15797     15798     15797     15799     15797     15800     15800     15801
     15800     15802     15800     15803     15803     15804     15803     15805
     15803     15806     15806     15807     15806     15808     15806     15809
     15809     15810     15809     15811     15809     15812     15812     15813
     15812     15814     15812     15815     15815     15816     15815     15817
     15815     15818     15819     15823     15819     15827     15819     15831
     15823     15824     15823     15825     15823     15826     15827     15828
     15827     15829     15827     15830     15831     15832     15831     15833
     15831     15834     15819     15820     15820     15821     15820     15822
     15820     15835     15835     15836     15835     15837     15835     15841
     15842     15843     15841     15838     15838     15842     15838     15839
     15838     15840     15843     15844     15843     15845     15843     15846
     15846     15847     15846     15854     15846     15848     15854     15855
     15854     15856     15854     15857     15848     15849     15849     15851
     15849     15850     15851     15852     15851     15853     15851     15863
     15863     15864     15863     15865     15863     15866     15866     15867
     15866     15868     15866     15869     15869     15870     15869     15871
     15869     15872     15872     15873     15872     15874     15872     15875
     15875     15876     15875     15877     15875     15878     15878     15879
     15878     15880     15878     15881     15881     15882     15881     15883
     15883     15884     15883     15885     15885     15886     15885     15887
     15885     15888     15888     15889     15888     15890     15888     15891
     15891     15892     15891     15893     15891     15894     15894     15895
     15894     15896     15894     15897     15897     15898     15897     15899
     15897     15900     15900     15901     15900     15902     15900     15903
     15903     15904     15903     15905     15903     15906     15906     15907
     15906     15908     15906     15909     15857     15858     15858     15860
     15858     15859     15860     15861     15860     15862     15860     15910
     15910     15911     15910     15912     15910     15913     15913     15914
     15913     15915     15913     15916     15916     15917     15916     15918
     15916     15919     15919     15920     15919     15921     15919     15922
     15922     15923     15922     15924     15922     15925     15925     15926
     15925     15927     15925     15928     15928     15929     15928     15930
     15930     15931     15930     15932     15932     15933     15932     15934
     15932     15935     15935     15936     15935     15937     15935     15938
     15938     15939     15938     15940     15938     15941     15941     15942
     15941     15943     15941     15944     15944     15945     15944     15946
     15944     15947     15947     15948     15947     15949     15947     15950
     15950     15951     15950     15952     15950     15953     15953     15954
     15953     15955     15953     15956     15957     15961     15957     15965
     15957     15969     15961     15962     15961     15963     15961     15964
     15965     15966     15965     15967     15965     15968     15969     15970
     15969     15971     15969     15972     15957     15958     15958     15959
     15958     15960     15958     15973     15973     15974     15973     15975
     15973     15979     15980     15981     15979     15976     15976     15980
     15976     15977     15976     15978     15981     15982     15981     15983
     15981     15984     15984     15985     15984     15992     15984     15986
     15992     15993     15992     15994     15992     15995     15986     15987
     15987     15989     15987     15988     15989     15990     15989     15991
     15989     16001     16001     16002     16001     16003     16001     16004
     16004     16005     16004     16006     16004     16007     16007     16008
     16007     16009     16007     16010     16010     16011     16010     16012
     16010     16013     16013     16014     16013     16015     16013     16016
     16016     16017     16016     16018     16016     16019     16019     16020
     16019     16021     16021     16022     16021     16023     16023     16024
     16023     16025     16023     16026     16026     16027     16026     16028
     16026     16029     16029     16030     16029     16031     16029     16032
     16032     16033     16032     16034     16032     16035     16035     16036
     16035     16037     16035     16038     16038     16039     16038     16040
     16038     16041     16041     16042     16041     16043     16041     16044
     16044     16045     16044     16046     16044     16047     15995     15996
     15996     15998     15996     15997     15998     15999     15998     16000
     15998     16048     16048     16049     16048     16050     16048     16051
     16051     16052     16051     16053     16051     16054     16054     16055
     16054     16056     16054     16057     16057     16058     16057     16059
     16057     16060     16060     16061     16060     16062     16060     16063
     16063     16064     16063     16065     16063     16066     16066     16067
     16066     16068     16068     16069     16068     16070     16070     16071
     16070     16072     16070     16073     16073     16074     16073     16075
     16073     16076     16076     16077     16076     16078     16076     16079
     16079     16080     16079     16081     16079     16082     16082     16083
     16082     16084     16082     16085     16085     16086     16085     16087
     16085     16088     16088     16089     16088     16090     16088     16091
     16091     16092     16091     16093     16091     16094     16095     16099
     16095     16103     16095     16107     16099     16100     16099     16101
     16099     16102     16103     16104     16103     16105     16103     16106
     16107     16108     16107     16109     16107     16110     16095     16096
     16096     16097     16096     16098     16096     16111     16111     16112
     16111     16113     16111     16117     16118     16119     16117     16114
     16114     16118     16114     16115     16114     16116     16119     16120
     16119     16121     16119     16122     16122     16123     16122     16130
     16122     16124     16130     16131     16130     16132     16130     16133
     16124     16125     16125     16127     16125     16126     16127     16128
     16127     16129     16127     16139     16139     16140     16139     16141
     16139     16142     16142     16143     16142     16144     16142     16145
     16145     16146     16145     16147     16145     16148     16148     16149
     16148     16150     16148     16151     16151     16152     16151     16153
     16151     16154     16154     16155     16154     16156     16154     16157
     16157     16158     16157     16159     16159     16160     16159     16161
     16161     16162     16161     16163     16161     16164     16164     16165
     16164     16166     16164     16167     16167     16168     16167     16169
     16167     16170     16170     16171     16170     16172     16170     16173
     16173     16174     16173     16175     16173     16176     16176     16177
     16176     16178     16176     16179     16179     16180     16179     16181
     16179     16182     16182     16183     16182     16184     16182     16185
     16133     16134     16134     16136     16134     16135     16136     16137
     16136     16138     16136     16186     16186     16187     16186     16188
     16186     16189     16189     16190     16189     16191     16189     16192
     16192     16193     16192     16194     16192     16195     16195     16196
     16195     16197     16195     16198     16198     16199     16198     16200
     16198     16201     16201     16202     16201     16203     16201     16204
     16204     16205     16204     16206     16206     16207     16206     16208
     16208     16209     16208     16210     16208     16211     16211     16212
     16211     16213     16211     16214     16214     16215     16214     16216
     16214     16217     16217     16218     16217     16219     16217     16220
     16220     16221     16220     16222     16220     16223     16223     16224
     16223     16225     16223     16226     16226     16227     16226     16228
     16226     16229     16229     16230     16229     16231     16229     16232
     16233     16237     16233     16241     16233     16245     16237     16238
     16237     16239     16237     16240     16241     16242     16241     16243
     16241     16244     16245     16246     16245     16247     16245     16248
     16233     16234     16234     16235     16234     16236     16234     16249
     16249     16250     16249     16251     16249     16255     16256     16257
     16255     16252     16252     16256     16252     16253     16252     16254
     16257     16258     16257     16259     16257     16260     16260     16261
     16260     16268     16260     16262     16268     16269     16268     16270
     16268     16271     16262     16263     16263     16265     16263     16264
     16265     16266     16265     16267     16265     16277     16277     16278
     16277     16279     16277     16280     16280     16281     16280     16282
     16280     16283     16283     16284     16283     16285     16283     16286
     16286     16287     16286     16288     16286     16289     16289     16290
     16289     16291     16289     16292     16292     16293     16292     16294
     16292     16295     16295     16296     16295     16297     16297     16298
     16297     16299     16299     16300     16299     16301     16299     16302
     16302     16303     16302     16304     16302     16305     16305     16306
     16305     16307     16305     16308     16308     16309     16308     16310
     16308     16311     16311     16312     16311     16313     16311     16314
     16314     16315     16314     16316     16314     16317     16317     16318
     16317     16319     16317     16320     16320     16321     16320     16322
     16320     16323     16271     16272     16272     16274     16272     16273
     16274     16275     16274     16276     16274     16324     16324     16325
     16324     16326     16324     16327     16327     16328     16327     16329
     16327     16330     16330     16331     16330     16332     16330     16333
     16333     16334     16333     16335     16333     16336     16336     16337
     16336     16338     16336     16339     16339     16340     16339     16341
     16339     16342     16342     16343     16342     16344     16344     16345
     16344     16346     16346     16347     16346     16348     16346     16349
     16349     16350     16349     16351     16349     16352     16352     16353
     16352     16354     16352     16355     16355     16356     16355     16357
     16355     16358     16358     16359     16358     16360     16358     16361
     16361     16362     16361     16363     16361     16364     16364     16365
     16364     16366     16364     16367     16367     16368     16367     16369
     16367     16370     16371     16375     16371     16379     16371     16383
     16375     16376     16375     16377     16375     16378     16379     16380
     16379     16381     16379     16382     16383     16384     16383     16385
     16383     16386     16371     16372     16372     16373     16372     16374
     16372     16387     16387     16388     16387     16389     16387     16393
     16394     16395     16393     16390     16390     16394     16390     16391
     16390     16392     16395     16396     16395     16397     16395     16398
     16398     16399     16398     16406     16398     16400     16406     16407
     16406     16408     16406     16409     16400     16401     16401     16403
     16401     16402     16403     16404     16403     16405     16403     16415
     16415     16416     16415     16417     16415     16418     16418     16419
     16418     16420     16418     16421     16421     16422     16421     16423
     16421     16424     16424     16425     16424     16426     16424     16427
     16427     16428     16427     16429     16427     16430     16430     16431
     16430     16432     16430     16433     16433     16434     16433     16435
     16435     16436     16435     16437     16437     16438     16437     16439
     16437     16440     16440     16441     16440     16442     16440     16443
     16443     16444     16443     16445     16443     16446     16446     16447
     16446     16448     16446     16449     16449     16450     16449     16451
     16449     16452     16452     16453     16452     16454     16452     16455
     16455     16456     16455     16457     16455     16458     16458     16459
     16458     16460     16458     16461     16409     16410     16410     16412
     16410     16411     16412     16413     16412     16414     16412     16462
     16462     16463     16462     16464     16462     16465     16465     16466
     16465     16467     16465     16468     16468     16469     16468     16470
     16468     16471     16471     16472     16471     16473     16471     16474
     16474     16475     16474     16476     16474     16477     16477     16478
     16477     16479     16477     16480     16480     16481     16480     16482
     16482     16483     16482     16484     16484     16485     16484     16486
     16484     16487     16487     16488     16487     16489     16487     16490
     16490     16491     16490     16492     16490     16493     16493     16494
     16493     16495     16493     16496     16496     16497     16496     16498
     16496     16499     16499     16500     16499     16501     16499     16502
     16502     16503     16502     16504     16502     16505     16505     16506
     16505     16507     16505     16508     16509     16513     16509     16517
     16509     16521     16513     16514     16513     16515     16513     16516
     16517     16518     16517     16519     16517     16520     16521     16522
     16521     16523     16521     16524     16509     16510     16510     16511
     16510     16512     16510     16525     16525     16526     16525     16527
     16525     16531     16532     16533     16531     16528     16528     16532
     16528     16529     16528     16530     16533     16534     16533     16535
     16533     16536     16536     16537     16536     16544     16536     16538
     16544     16545     16544     16546     16544     16547     16538     16539
     16539     16541     16539     16540     16541     16542     16541     16543
     16541     16553     16553     16554     16553     16555     16553     16556
     16556     16557     16556     16558     16556     16559     16559     16560
     16559     16561     16559     16562     16562     16563     16562     16564
     16562     16565     16565     16566     16565     16567     16565     16568
     16568     16569     16568     16570     16568     16571     16571     16572
     16571     16573     16573     16574     16573     16575     16575     16576
     16575     16577     16575     16578     16578     16579     16578     16580
     16578     16581     16581     16582     16581     16583     16581     16584
     16584     16585     16584     16586     16584     16587     16587     16588
     16587     16589     16587     16590     16590     16591     16590     16592
     16590     16593     16593     16594     16593     16595     16593     16596
     16596     16597     16596     16598     16596     16599     16547     16548
     16548     16550     16548     16549     16550     16551     16550     16552
     16550     16600     16600     16601     16600     16602     16600     16603
     16603     16604     16603     16605     16603     16606     16606     16607
     16606     16608     16606     16609     16609     16610     16609     16611
     16609     16612     16612     16613     16612     16614     16612     16615
     16615     16616     16615     16617     16615     16618     16618     16619
     16618     16620     16620     16621     16620     16622     16622     16623
     16622     16624     16622     16625     16625     16626     16625     16627
     16625     16628     16628     16629     16628     16630     16628     16631
     16631     16632     16631     16633     16631     16634     16634     16635
     16634     16636     16634     16637     16637     16638     16637     16639
     16637     16640     16640     16641     16640     16642     16640     16643
     16643     16644     16643     16645     16643     16646     16647     16651
     16647     16655     16647     16659     16651     16652     16651     16653
     16651     16654     16655     16656     16655     16657     16655     16658
     16659     16660     16659     16661     16659     16662     16647     16648
     16648     16649     16648     16650     16648     16663     16663     16664
     16663     16665     16663     16669     16670     16671     16669     16666
     16666     16670     16666     16667     16666     16668     16671     16672
     16671     16673     16671     16674     16674     16675     16674     16682
     16674     16676     16682     16683     16682     16684     16682     16685
     16676     16677     16677     16679     16677     16678     16679     16680
     16679     16681     16679     16691     16691     16692     16691     16693
     16691     16694     16694     16695     16694     16696     16694     16697
     16697     16698     16697     16699     16697     16700     16700     16701
     16700     16702     16700     16703     16703     16704     16703     16705
     16703     16706     16706     16707     16706     16708     16706     16709
     16709     16710     16709     16711     16711     16712     16711     16713
     16713     16714     16713     16715     16713     16716     16716     16717
     16716     16718     16716     16719     16719     16720     16719     16721
     16719     16722     16722     16723     16722     16724     16722     16725
     16725     16726     16725     16727     16725     16728     16728     16729
     16728     16730     16728     16731     16731     16732     16731     16733
     16731     16734     16734     16735     16734     16736     16734     16737
     16685     16686     16686     16688     16686     16687     16688     16689
     16688     16690     16688     16738     16738     16739     16738     16740
     16738     16741     16741     16742     16741     16743     16741     16744
     16744     16745     16744     16746     16744     16747     16747     16748
     16747     16749     16747     16750     16750     16751     16750     16752
     16750     16753     16753     16754     16753     16755     16753     16756
     16756     16757     16756     16758     16758     16759     16758     16760
     16760     16761     16760     16762     16760     16763     16763     16764
     16763     16765     16763     16766     16766     16767     16766     16768
     16766     16769     16769     16770     16769     16771     16769     16772
     16772     16773     16772     16774     16772     16775     16775     16776
     16775     16777     16775     16778     16778     16779     16778     16780
     16778     16781     16781     16782     16781     16783     16781     16784
     16785     16789     16785     16793     16785     16797     16789     16790
     16789     16791     16789     16792     16793     16794     16793     16795
     16793     16796     16797     16798     16797     16799     16797     16800
     16785     16786     16786     16787     16786     16788     16786     16801
     16801     16802     16801     16803     16801     16807     16808     16809
     16807     16804     16804     16808     16804     16805     16804     16806
     16809     16810     16809     16811     16809     16812     16812     16813
     16812     16820     16812     16814     16820     16821     16820     16822
     16820     16823     16814     16815     16815     16817     16815     16816
     16817     16818     16817     16819     16817     16829     16829     16830
     16829     16831     16829     16832     16832     16833     16832     16834
     16832     16835     16835     16836     16835     16837     16835     16838
     16838     16839     16838     16840     16838     16841     16841     16842
     16841     16843     16841     16844     16844     16845     16844     16846
     16844     16847     16847     16848     16847     16849     16849     16850
     16849     16851     16851     16852     16851     16853     16851     16854
     16854     16855     16854     16856     16854     16857     16857     16858
     16857     16859     16857     16860     16860     16861     16860     16862
     16860     16863     16863     16864     16863     16865     16863     16866
     16866     16867     16866     16868     16866     16869     16869     16870
     16869     16871     16869     16872     16872     16873     16872     16874
     16872     16875     16823     16824     16824     16826     16824     16825
     16826     16827     16826     16828     16826     16876     16876     16877
     16876     16878     16876     16879     16879     16880     16879     16881
     16879     16882     16882     16883     16882     16884     16882     16885
     16885     16886     16885     16887     16885     16888     16888     16889
     16888     16890     16888     16891     16891     16892     16891     16893
     16891     16894     16894     16895     16894     16896     16896     16897
     16896     16898     16898     16899     16898     16900     16898     16901
     16901     16902     16901     16903     16901     16904     16904     16905
     16904     16906     16904     16907     16907     16908     16907     16909
     16907     16910     16910     16911     16910     16912     16910     16913
     16913     16914     16913     16915     16913     16916     16916     16917
     16916     16918     16916     16919     16919     16920     16919     16921
     16919     16922     16923     16927     16923     16931     16923     16935
     16927     16928     16927     16929     16927     16930     16931     16932
     16931     16933     16931     16934     16935     16936     16935     16937
     16935     16938     16923     16924     16924     16925     16924     16926
     16924     16939     16939     16940     16939     16941     16939     16945
     16946     16947     16945     16942     16942     16946     16942     16943
     16942     16944     16947     16948     16947     16949     16947     16950
     16950     16951     16950     16958     16950     16952     16958     16959
     16958     16960     16958     16961     16952     16953     16953     16955
     16953     16954     16955     16956     16955     16957     16955     16967
     16967     16968     16967     16969     16967     16970     16970     16971
     16970     16972     16970     16973     16973     16974     16973     16975
     16973     16976     16976     16977     16976     16978     16976     16979
     16979     16980     16979     16981     16979     16982     16982     16983
     16982     16984     16982     16985     16985     16986     16985     16987
     16987     16988     16987     16989     16989     16990     16989     16991
     16989     16992     16992     16993     16992     16994     16992     16995
     16995     16996     16995     16997     16995     16998     16998     16999
     16998     17000     16998     17001     17001     17002     17001     17003
     17001     17004     17004     17005     17004     17006     17004     17007
     17007     17008     17007     17009     17007     17010     17010     17011
     17010     17012     17010     17013     16961     16962     16962     16964
     16962     16963     16964     16965     16964     16966     16964     17014
     17014     17015     17014     17016     17014     17017     17017     17018
     17017     17019     17017     17020     17020     17021     17020     17022
     17020     17023     17023     17024     17023     17025     17023     17026
     17026     17027     17026     17028     17026     17029     17029     17030
     17029     17031     17029     17032     17032     17033     17032     17034
     17034     17035     17034     17036     17036     17037     17036     17038
     17036     17039     17039     17040     17039     17041     17039     17042
     17042     17043     17042     17044     17042     17045     17045     17046
     17045     17047     17045     17048     17048     17049     17048     17050
     17048     17051     17051     17052     17051     17053     17051     17054
     17054     17055     17054     17056     17054     17057     17057     17058
     17057     17059     17057     17060     17061     17065     17061     17069
     17061     17073     17065     17066     17065     17067     17065     17068
     17069     17070     17069     17071     17069     17072     17073     17074
     17073     17075     17073     17076     17061     17062     17062     17063
     17062     17064     17062     17077     17077     17078     17077     17079
     17077     17083     17084     17085     17083     17080     17080     17084
     17080     17081     17080     17082     17085     17086     17085     17087
     17085     17088     17088     17089     17088     17096     17088     17090
     17096     17097     17096     17098     17096     17099     17090     17091
     17091     17093     17091     17092     17093     17094     17093     17095
     17093     17105     17105     17106     17105     17107     17105     17108
     17108     17109     17108     17110     17108     17111     17111     17112
     17111     17113     17111     17114     17114     17115     17114     17116
     17114     17117     17117     17118     17117     17119     17117     17120
     17120     17121     17120     17122     17120     17123     17123     17124
     17123     17125     17125     17126     17125     17127     17127     17128
     17127     17129     17127     17130     17130     17131     17130     17132
     17130     17133     17133     17134     17133     17135     17133     17136
     17136     17137     17136     17138     17136     17139     17139     17140
     17139     17141     17139     17142     17142     17143     17142     17144
     17142     17145     17145     17146     17145     17147     17145     17148
     17148     17149     17148     17150     17148     17151     17099     17100
     17100     17102     17100     17101     17102     17103     17102     17104
     17102     17152     17152     17153     17152     17154     17152     17155
     17155     17156     17155     17157     17155     17158     17158     17159
     17158     17160     17158     17161     17161     17162     17161     17163
     17161     17164     17164     17165     17164     17166     17164     17167
     17167     17168     17167     17169     17167     17170     17170     17171
     17170     17172     17172     17173     17172     17174     17174     17175
     17174     17176     17174     17177     17177     17178     17177     17179
     17177     17180     17180     17181     17180     17182     17180     17183
     17183     17184     17183     17185     17183     17186     17186     17187
     17186     17188     17186     17189     17189     17190     17189     17191
     17189     17192     17192     17193     17192     17194     17192     17195
     17195     17196     17195     17197     17195     17198     17199     17203
     17199     17207     17199     17211     17203     17204     17203     17205
     17203     17206     17207     17208     17207     17209     17207     17210
     17211     17212     17211     17213     17211     17214     17199     17200
     17200     17201     17200     17202     17200     17215     17215     17216
     17215     17217     17215     17221     17222     17223     17221     17218
     17218     17222     17218     17219     17218     17220     17223     17224
     17223     17225     17223     17226     17226     17227     17226     17234
     17226     17228     17234     17235     17234     17236     17234     17237
     17228     17229     17229     17231     17229     17230     17231     17232
     17231     17233     17231     17243     17243     17244     17243     17245
     17243     17246     17246     17247     17246     17248     17246     17249
     17249     17250     17249     17251     17249     17252     17252     17253
     17252     17254     17252     17255     17255     17256     17255     17257
     17255     17258     17258     17259     17258     17260     17258     17261
     17261     17262     17261     17263     17263     17264     17263     17265
     17265     17266     17265     17267     17265     17268     17268     17269
     17268     17270     17268     17271     17271     17272     17271     17273
     17271     17274     17274     17275     17274     17276     17274     17277
     17277     17278     17277     17279     17277     17280     17280     17281
     17280     17282     17280     17283     17283     17284     17283     17285
     17283     17286     17286     17287     17286     17288     17286     17289
     17237     17238     17238     17240     17238     17239     17240     17241
     17240     17242     17240     17290     17290     17291     17290     17292
     17290     17293     17293     17294     17293     17295     17293     17296
     17296     17297     17296     17298     17296     17299     17299     17300
     17299     17301     17299     17302     17302     17303     17302     17304
     17302     17305     17305     17306     17305     17307     17305     17308
     17308     17309     17308     17310     17310     17311     17310     17312
     17312     17313     17312     17314     17312     17315     17315     17316
     17315     17317     17315     17318     17318     17319     17318     17320
     17318     17321     17321     17322     17321     17323     17321     17324
     17324     17325     17324     17326     17324     17327     17327     17328
     17327     17329     17327     17330     17330     17331     17330     17332
     17330     17333     17333     17334     17333     17335     17333     17336
     17337     17341     17337     17345     17337     17349     17341     17342
     17341     17343     17341     17344     17345     17346     17345     17347
     17345     17348     17349     17350     17349     17351     17349     17352
     17337     17338     17338     17339     17338     17340     17338     17353
     17353     17354     17353     17355     17353     17359     17360     17361
     17359     17356     17356     17360     17356     17357     17356     17358
     17361     17362     17361     17363     17361     17364     17364     17365
     17364     17372     17364     17366     17372     17373     17372     17374
     17372     17375     17366     17367     17367     17369     17367     17368
     17369     17370     17369     17371     17369     17381     17381     17382
     17381     17383     17381     17384     17384     17385     17384     17386
     17384     17387     17387     17388     17387     17389     17387     17390
     17390     17391     17390     17392     17390     17393     17393     17394
     17393     17395     17393     17396     17396     17397     17396     17398
     17396     17399     17399     17400     17399     17401     17401     17402
     17401     17403     17403     17404     17403     17405     17403     17406
     17406     17407     17406     17408     17406     17409     17409     17410
     17409     17411     17409     17412     17412     17413     17412     17414
     17412     17415     17415     17416     17415     17417     17415     17418
     17418     17419     17418     17420     17418     17421     17421     17422
     17421     17423     17421     17424     17424     17425     17424     17426
     17424     17427     17375     17376     17376     17378     17376     17377
     17378     17379     17378     17380     17378     17428     17428     17429
     17428     17430     17428     17431     17431     17432     17431     17433
     17431     17434     17434     17435     17434     17436     17434     17437
     17437     17438     17437     17439     17437     17440     17440     17441
     17440     17442     17440     17443     17443     17444     17443     17445
     17443     17446     17446     17447     17446     17448     17448     17449
     17448     17450     17450     17451     17450     17452     17450     17453
     17453     17454     17453     17455     17453     17456     17456     17457
     17456     17458     17456     17459     17459     17460     17459     17461
     17459     17462     17462     17463     17462     17464     17462     17465
     17465     17466     17465     17467     17465     17468     17468     17469
     17468     17470     17468     17471     17471     17472     17471     17473
     17471     17474     17475     17479     17475     17483     17475     17487
     17479     17480     17479     17481     17479     17482     17483     17484
     17483     17485     17483     17486     17487     17488     17487     17489
     17487     17490     17475     17476     17476     17477     17476     17478
     17476     17491     17491     17492     17491     17493     17491     17497
     17498     17499     17497     17494     17494     17498     17494     17495
     17494     17496     17499     17500     17499     17501     17499     17502
     17502     17503     17502     17510     17502     17504     17510     17511
     17510     17512     17510     17513     17504     17505     17505     17507
     17505     17506     17507     17508     17507     17509     17507     17519
     17519     17520     17519     17521     17519     17522     17522     17523
     17522     17524     17522     17525     17525     17526     17525     17527
     17525     17528     17528     17529     17528     17530     17528     17531
     17531     17532     17531     17533     17531     17534     17534     17535
     17534     17536     17534     17537     17537     17538     17537     17539
     17539     17540     17539     17541     17541     17542     17541     17543
     17541     17544     17544     17545     17544     17546     17544     17547
     17547     17548     17547     17549     17547     17550     17550     17551
     17550     17552     17550     17553     17553     17554     17553     17555
     17553     17556     17556     17557     17556     17558     17556     17559
     17559     17560     17559     17561     17559     17562     17562     17563
     17562     17564     17562     17565     17513     17514     17514     17516
     17514     17515     17516     17517     17516     17518     17516     17566
     17566     17567     17566     17568     17566     17569     17569     17570
     17569     17571     17569     17572     17572     17573     17572     17574
     17572     17575     17575     17576     17575     17577     17575     17578
     17578     17579     17578     17580     17578     17581     17581     17582
     17581     17583     17581     17584     17584     17585     17584     17586
     17586     17587     17586     17588     17588     17589     17588     17590
     17588     17591     17591     17592     17591     17593     17591     17594
     17594     17595     17594     17596     17594     17597     17597     17598
     17597     17599     17597     17600     17600     17601     17600     17602
     17600     17603     17603     17604     17603     17605     17603     17606
     17606     17607     17606     17608     17606     17609     17609     17610
     17609     17611     17609     17612     17613     17617     17613     17621
     17613     17625     17617     17618     17617     17619     17617     17620
     17621     17622     17621     17623     17621     17624     17625     17626
     17625     17627     17625     17628     17613     17614     17614     17615
     17614     17616     17614     17629     17629     17630     17629     17631
     17629     17635     17636     17637     17635     17632     17632     17636
     17632     17633     17632     17634     17637     17638     17637     17639
     17637     17640     17640     17641     17640     17648     17640     17642
     17648     17649     17648     17650     17648     17651     17642     17643
     17643     17645     17643     17644     17645     17646     17645     17647
     17645     17657     17657     17658     17657     17659     17657     17660
     17660     17661     17660     17662     17660     17663     17663     17664
     17663     17665     17663     17666     17666     17667     17666     17668
     17666     17669     17669     17670     17669     17671     17669     17672
     17672     17673     17672     17674     17672     17675     17675     17676
     17675     17677     17677     17678     17677     17679     17679     17680
     17679     17681     17679     17682     17682     17683     17682     17684
     17682     17685     17685     17686     17685     17687     17685     17688
     17688     17689     17688     17690     17688     17691     17691     17692
     17691     17693     17691     17694     17694     17695     17694     17696
     17694     17697     17697     17698     17697     17699     17697     17700
     17700     17701     17700     17702     17700     17703     17651     17652
     17652     17654     17652     17653     17654     17655     17654     17656
     17654     17704     17704     17705     17704     17706     17704     17707
     17707     17708     17707     17709     17707     17710     17710     17711
     17710     17712     17710     17713     17713     17714     17713     17715
     17713     17716     17716     17717     17716     17718     17716     17719
     17719     17720     17719     17721     17719     17722     17722     17723
     17722     17724     17724     17725     17724     17726     17726     17727
     17726     17728     17726     17729     17729     17730     17729     17731
     17729     17732     17732     17733     17732     17734     17732     17735
     17735     17736     17735     17737     17735     17738     17738     17739
     17738     17740     17738     17741     17741     17742     17741     17743
     17741     17744     17744     17745     17744     17746     17744     17747
     17747     17748     17747     17749     17747     17750     17751     17755
     17751     17759     17751     17763     17755     17756     17755     17757
     17755     17758     17759     17760     17759     17761     17759     17762
     17763     17764     17763     17765     17763     17766     17751     17752
     17752     17753     17752     17754     17752     17767     17767     17768
     17767     17769     17767     17773     17774     17775     17773     17770
     17770     17774     17770     17771     17770     17772     17775     17776
     17775     17777     17775     17778     17778     17779     17778     17786
     17778     17780     17786     17787     17786     17788     17786     17789
     17780     17781     17781     17783     17781     17782     17783     17784
     17783     17785     17783     17795     17795     17796     17795     17797
     17795     17798     17798     17799     17798     17800     17798     17801
     17801     17802     17801     17803     17801     17804     17804     17805
     17804     17806     17804     17807     17807     17808     17807     17809
     17807     17810     17810     17811     17810     17812     17810     17813
     17813     17814     17813     17815     17815     17816     17815     17817
     17817     17818     17817     17819     17817     17820     17820     17821
     17820     17822     17820     17823     17823     17824     17823     17825
     17823     17826     17826     17827     17826     17828     17826     17829
     17829     17830     17829     17831     17829     17832     17832     17833
     17832     17834     17832     17835     17835     17836     17835     17837
     17835     17838     17838     17839     17838     17840     17838     17841
     17789     17790     17790     17792     17790     17791     17792     17793
     17792     17794     17792     17842     17842     17843     17842     17844
     17842     17845     17845     17846     17845     17847     17845     17848
     17848     17849     17848     17850     17848     17851     17851     17852
     17851     17853     17851     17854     17854     17855     17854     17856
     17854     17857     17857     17858     17857     17859     17857     17860
     17860     17861     17860     17862     17862     17863     17862     17864
     17864     17865     17864     17866     17864     17867     17867     17868
     17867     17869     17867     17870     17870     17871     17870     17872
     17870     17873     17873     17874     17873     17875     17873     17876
     17876     17877     17876     17878     17876     17879     17879     17880
     17879     17881     17879     17882     17882     17883     17882     17884
     17882     17885     17885     17886     17885     17887     17885     17888
     17889     17893     17889     17897     17889     17901     17893     17894
     17893     17895     17893     17896     17897     17898     17897     17899
     17897     17900     17901     17902     17901     17903     17901     17904
     17889     17890     17890     17891     17890     17892     17890     17905
     17905     17906     17905     17907     17905     17911     17912     17913
     17911     17908     17908     17912     17908     17909     17908     17910
     17913     17914     17913     17915     17913     17916     17916     17917
     17916     17924     17916     17918     17924     17925     17924     17926
     17924     17927     17918     17919     17919     17921     17919     17920
     17921     17922     17921     17923     17921     17933     17933     17934
     17933     17935     17933     17936     17936     17937     17936     17938
     17936     17939     17939     17940     17939     17941     17939     17942
     17942     17943     17942     17944     17942     17945     17945     17946
     17945     17947     17945     17948     17948     17949     17948     17950
     17948     17951     17951     17952     17951     17953     17953     17954
     17953     17955     17955     17956     17955     17957     17955     17958
     17958     17959     17958     17960     17958     17961     17961     17962
     17961     17963     17961     17964     17964     17965     17964     17966
     17964     17967     17967     17968     17967     17969     17967     17970
     17970     17971     17970     17972     17970     17973     17973     17974
     17973     17975     17973     17976     17976     17977     17976     17978
     17976     17979     17927     17928     17928     17930     17928     17929
     17930     17931     17930     17932     17930     17980     17980     17981
     17980     17982     17980     17983     17983     17984     17983     17985
     17983     17986     17986     17987     17986     17988     17986     17989
     17989     17990     17989     17991     17989     17992     17992     17993
     17992     17994     17992     17995     17995     17996     17995     17997
     17995     17998     17998     17999     17998     18000     18000     18001
     18000     18002     18002     18003     18002     18004     18002     18005
     18005     18006     18005     18007     18005     18008     18008     18009
     18008     18010     18008     18011     18011     18012     18011     18013
     18011     18014     18014     18015     18014     18016     18014     18017
     18017     18018     18017     18019     18017     18020     18020     18021
     18020     18022     18020     18023     18023     18024     18023     18025
     18023     18026     18027     18031     18027     18035     18027     18039
     18031     18032     18031     18033     18031     18034     18035     18036
     18035     18037     18035     18038     18039     18040     18039     18041
     18039     18042     18027     18028     18028     18029     18028     18030
     18028     18043     18043     18044     18043     18045     18043     18049
     18050     18051     18049     18046     18046     18050     18046     18047
     18046     18048     18051     18052     18051     18053     18051     18054
     18054     18055     18054     18062     18054     18056     18062     18063
     18062     18064     18062     18065     18056     18057     18057     18059
     18057     18058     18059     18060     18059     18061     18059     18071
     18071     18072     18071     18073     18071     18074     18074     18075
     18074     18076     18074     18077     18077     18078     18077     18079
     18077     18080     18080     18081     18080     18082     18080     18083
     18083     18084     18083     18085     18083     18086     18086     18087
     18086     18088     18086     18089     18089     18090     18089     18091
     18091     18092     18091     18093     18093     18094     18093     18095
     18093     18096     18096     18097     18096     18098     18096     18099
     18099     18100     18099     18101     18099     18102     18102     18103
     18102     18104     18102     18105     18105     18106     18105     18107
     18105     18108     18108     18109     18108     18110     18108     18111
     18111     18112     18111     18113     18111     18114     18114     18115
     18114     18116     18114     18117     18065     18066     18066     18068
     18066     18067     18068     18069     18068     18070     18068     18118
     18118     18119     18118     18120     18118     18121     18121     18122
     18121     18123     18121     18124     18124     18125     18124     18126
     18124     18127     18127     18128     18127     18129     18127     18130
     18130     18131     18130     18132     18130     18133     18133     18134
     18133     18135     18133     18136     18136     18137     18136     18138
     18138     18139     18138     18140     18140     18141     18140     18142
     18140     18143     18143     18144     18143     18145     18143     18146
     18146     18147     18146     18148     18146     18149     18149     18150
     18149     18151     18149     18152     18152     18153     18152     18154
     18152     18155     18155     18156     18155     18157     18155     18158
     18158     18159     18158     18160     18158     18161     18161     18162
     18161     18163     18161     18164     18165     18169     18165     18173
     18165     18177     18169     18170     18169     18171     18169     18172
     18173     18174     18173     18175     18173     18176     18177     18178
     18177     18179     18177     18180     18165     18166     18166     18167
     18166     18168     18166     18181     18181     18182     18181     18183
     18181     18187     18188     18189     18187     18184     18184     18188
     18184     18185     18184     18186     18189     18190     18189     18191
     18189     18192     18192     18193     18192     18200     18192     18194
     18200     18201     18200     18202     18200     18203     18194     18195
     18195     18197     18195     18196     18197     18198     18197     18199
     18197     18209     18209     18210     18209     18211     18209     18212
     18212     18213     18212     18214     18212     18215     18215     18216
     18215     18217     18215     18218     18218     18219     18218     18220
     18218     18221     18221     18222     18221     18223     18221     18224
     18224     18225     18224     18226     18224     18227     18227     18228
     18227     18229     18229     18230     18229     18231     18231     18232
     18231     18233     18231     18234     18234     18235     18234     18236
     18234     18237     18237     18238     18237     18239     18237     18240
     18240     18241     18240     18242     18240     18243     18243     18244
     18243     18245     18243     18246     18246     18247     18246     18248
     18246     18249     18249     18250     18249     18251     18249     18252
     18252     18253     18252     18254     18252     18255     18203     18204
     18204     18206     18204     18205     18206     18207     18206     18208
     18206     18256     18256     18257     18256     18258     18256     18259
     18259     18260     18259     18261     18259     18262     18262     18263
     18262     18264     18262     18265     18265     18266     18265     18267
     18265     18268     18268     18269     18268     18270     18268     18271
     18271     18272     18271     18273     18271     18274     18274     18275
     18274     18276     18276     18277     18276     18278     18278     18279
     18278     18280     18278     18281     18281     18282     18281     18283
     18281     18284     18284     18285     18284     18286     18284     18287
     18287     18288     18287     18289     18287     18290     18290     18291
     18290     18292     18290     18293     18293     18294     18293     18295
     18293     18296     18296     18297     18296     18298     18296     18299
     18299     18300     18299     18301     18299     18302     18303     18307
     18303     18311     18303     18315     18307     18308     18307     18309
     18307     18310     18311     18312     18311     18313     18311     18314
     18315     18316     18315     18317     18315     18318     18303     18304
     18304     18305     18304     18306     18304     18319     18319     18320
     18319     18321     18319     18325     18326     18327     18325     18322
     18322     18326     18322     18323     18322     18324     18327     18328
     18327     18329     18327     18330     18330     18331     18330     18338
     18330     18332     18338     18339     18338     18340     18338     18341
     18332     18333     18333     18335     18333     18334     18335     18336
     18335     18337     18335     18347     18347     18348     18347     18349
     18347     18350     18350     18351     18350     18352     18350     18353
     18353     18354     18353     18355     18353     18356     18356     18357
     18356     18358     18356     18359     18359     18360     18359     18361
     18359     18362     18362     18363     18362     18364     18362     18365
     18365     18366     18365     18367     18367     18368     18367     18369
     18369     18370     18369     18371     18369     18372     18372     18373
     18372     18374     18372     18375     18375     18376     18375     18377
     18375     18378     18378     18379     18378     18380     18378     18381
     18381     18382     18381     18383     18381     18384     18384     18385
     18384     18386     18384     18387     18387     18388     18387     18389
     18387     18390     18390     18391     18390     18392     18390     18393
     18341     18342     18342     18344     18342     18343     18344     18345
     18344     18346     18344     18394     18394     18395     18394     18396
     18394     18397     18397     18398     18397     18399     18397     18400
     18400     18401     18400     18402     18400     18403     18403     18404
     18403     18405     18403     18406     18406     18407     18406     18408
     18406     18409     18409     18410     18409     18411     18409     18412
     18412     18413     18412     18414     18414     18415     18414     18416
     18416     18417     18416     18418     18416     18419     18419     18420
     18419     18421     18419     18422     18422     18423     18422     18424
     18422     18425     18425     18426     18425     18427     18425     18428
     18428     18429     18428     18430     18428     18431     18431     18432
     18431     18433     18431     18434     18434     18435     18434     18436
     18434     18437     18437     18438     18437     18439     18437     18440
     18441     18445     18441     18449     18441     18453     18445     18446
     18445     18447     18445     18448     18449     18450     18449     18451
     18449     18452     18453     18454     18453     18455     18453     18456
     18441     18442     18442     18443     18442     18444     18442     18457
     18457     18458     18457     18459     18457     18463     18464     18465
     18463     18460     18460     18464     18460     18461     18460     18462
     18465     18466     18465     18467     18465     18468     18468     18469
     18468     18476     18468     18470     18476     18477     18476     18478
     18476     18479     18470     18471     18471     18473     18471     18472
     18473     18474     18473     18475     18473     18485     18485     18486
     18485     18487     18485     18488     18488     18489     18488     18490
     18488     18491     18491     18492     18491     18493     18491     18494
     18494     18495     18494     18496     18494     18497     18497     18498
     18497     18499     18497     18500     18500     18501     18500     18502
     18500     18503     18503     18504     18503     18505     18505     18506
     18505     18507     18507     18508     18507     18509     18507     18510
     18510     18511     18510     18512     18510     18513     18513     18514
     18513     18515     18513     18516     18516     18517     18516     18518
     18516     18519     18519     18520     18519     18521     18519     18522
     18522     18523     18522     18524     18522     18525     18525     18526
     18525     18527     18525     18528     18528     18529     18528     18530
     18528     18531     18479     18480     18480     18482     18480     18481
     18482     18483     18482     18484     18482     18532     18532     18533
     18532     18534     18532     18535     18535     18536     18535     18537
     18535     18538     18538     18539     18538     18540     18538     18541
     18541     18542     18541     18543     18541     18544     18544     18545
     18544     18546     18544     18547     18547     18548     18547     18549
     18547     18550     18550     18551     18550     18552     18552     18553
     18552     18554     18554     18555     18554     18556     18554     18557
     18557     18558     18557     18559     18557     18560     18560     18561
     18560     18562     18560     18563     18563     18564     18563     18565
     18563     18566     18566     18567     18566     18568     18566     18569
     18569     18570     18569     18571     18569     18572     18572     18573
     18572     18574     18572     18575     18575     18576     18575     18577
     18575     18578     18579     18583     18579     18587     18579     18591
     18583     18584     18583     18585     18583     18586     18587     18588
     18587     18589     18587     18590     18591     18592     18591     18593
     18591     18594     18579     18580     18580     18581     18580     18582
     18580     18595     18595     18596     18595     18597     18595     18601
     18602     18603     18601     18598     18598     18602     18598     18599
     18598     18600     18603     18604     18603     18605     18603     18606
     18606     18607     18606     18614     18606     18608     18614     18615
     18614     18616     18614     18617     18608     18609     18609     18611
     18609     18610     18611     18612     18611     18613     18611     18623
     18623     18624     18623     18625     18623     18626     18626     18627
     18626     18628     18626     18629     18629     18630     18629     18631
     18629     18632     18632     18633     18632     18634     18632     18635
     18635     18636     18635     18637     18635     18638     18638     18639
     18638     18640     18638     18641     18641     18642     18641     18643
     18643     18644     18643     18645     18645     18646     18645     18647
     18645     18648     18648     18649     18648     18650     18648     18651
     18651     18652     18651     18653     18651     18654     18654     18655
     18654     18656     18654     18657     18657     18658     18657     18659
     18657     18660     18660     18661     18660     18662     18660     18663
     18663     18664     18663     18665     18663     18666     18666     18667
     18666     18668     18666     18669     18617     18618     18618     18620
     18618     18619     18620     18621     18620     18622     18620     18670
     18670     18671     18670     18672     18670     18673     18673     18674
     18673     18675     18673     18676     18676     18677     18676     18678
     18676     18679     18679     18680     18679     18681     18679     18682
     18682     18683     18682     18684     18682     18685     18685     18686
     18685     18687     18685     18688     18688     18689     18688     18690
     18690     18691     18690     18692     18692     18693     18692     18694
     18692     18695     18695     18696     18695     18697     18695     18698
     18698     18699     18698     18700     18698     18701     18701     18702
     18701     18703     18701     18704     18704     18705     18704     18706
     18704     18707     18707     18708     18707     18709     18707     18710
     18710     18711     18710     18712     18710     18713     18713     18714
     18713     18715     18713     18716

     35514 !NTHETA: angles
         2         1         3         2         1         4         2         1         5
         3         1         4         3         1         5         4         1         5
         1         5         6         1         5         7         1         5         8
         6         5         7         6         5         8         7         5         8
         5         8         9         5         8        10         9         8        10
         8        10        11         8        10        12        11        10        12
        10        12        13        10        12        14        10        12        18
        13        12        14        13        12        18        14        12        18
        12        14        15        12        14        16        12        14        17
        15        14        16        15        14        17        16        14        17
        12        18        19        12        18        20        19        18        20
        18        20        21        18        20        22        21        20        22
        20        22        23        20        22        24        20        22        37
        23        22        24        23        22        37        24        22        37
        22        24        25        22        24        26        22        24        27
        25        24        26        25        24        27        26        24        27
        24        27        28        24        27        29        24        27        33
        28        27        29        28        27        33        29        27        33
        27        29        30        27        29        31        27        29        32
        30        29        31        30        29        32        31        29        32
        27        33        34        27        33        35        27        33        36
        34        33        35        34        33        36        35        33        36
        22        37        38        22        37        39        38        37        39
        37        39        40        37        39        41        40        39        41
        39        41        42        39        41        43        39        41        47
        42        41        43        42        41        47        43        41        47
        41        43        44        41        43        45        41        43        46
        44        43        45        44        43        46        45        43        46
        41        47        48        41        47        49        48        47        49
        47        49        50        47        49        51        50        49        51
        49        51        52        49        51        53        49        51        63
        52        51        53        52        51        63        53        51        63
        51        53        54        51        53        55        51        53        59
        54        53        55        54        53        59        55        53        59
        53        55        56        53        55        57        53        55        58
        56        55        57        56        55        58        57        55        58
        53        59        60        53        59        61        53        59        62
        60        59        61        60        59        62        61        59        62
        51        63        64        51        63        65        64        63        65
        63        65        66        63        65        67        66        65        67
        65        67        68        65        67        69        65        67        79
        68        67        69        68        67        79        69        67        79
        67        69        70        67        69        71        67        69        75
        70        69        71        70        69        75        71        69        75
        69        71        72        69        71        73        69        71        74
        72        71        73        72        71        74        73        71        74
        69        75        76        69        75        77        69        75        78
        76        75        77        76        75        78        77        75        78
        67        79        80        67        79        81        80        79        81
        79        81        82        79        81        83        82        81        83
        81        83        84        81        83        85        81        83        95
        84        83        85        84        83        95        85        83        95
        83        85        86        83        85        87        83        85        91
        86        85        87        86        85        91        87        85        91
        85        87        88        85        87        89        85        87        90
        88        87        89        88        87        90        89        87        90
        85        91        92        85        91        93        85        91        94
        92        91        93        92        91        94        93        91        94
        83        95        96        83        95        97        96        95        97
        95        97        98        95        97        99        98        97        99
        97        99       100        97        99       101        97        99       119
       100        99       101       100        99       119       101        99       119
        99       101       102        99       101       103        99       101       104
       102       101       103       102       101       104       103       101       104
       101       104       105       101       104       110       105       104       110
       104       105       106       104       105       107       106       105       107
       105       107       108       105       107       109       108       107       109
       107       109       110       107       109       115       110       109       115
       104       110       109       104       110       111       109       110       111
       110       111       112       110       111       113       112       111       113
       111       113       114       111       113       117       114       113       117
       109       115       116       109       115       117       116       115       117
       113       117       115       113       117       118       115       117       118
        99       119       120        99       119       121       120       119       121
       119       121       122       119       121       123       122       121       123
       121       123       124       121       123       125       121       123       138
       124       123       125       124       123       138       125       123       138
       123       125       126       123       125       127       123       125       128
       126       125       127       126       125       128       127       125       128
       125       128       129       125       128       130       125       128       134
       129       128       130       129       128       134       130       128       134
       128       130       131       128       130       132       128       130       133
       131       130       132       131       130       133       132       130       133
       128       134       135       128       134       136       128       134       137
       135       134       136       135       134       137       136       134       137
       123       138       139       123       138       140       139       138       140
       138       140       141       138       140       142       141       140       142
       140       142       143       140       142       144       140       142       162
       143       142       144       143       142       162       144       142       162
       142       144       145       142       144       146       142       144       147
       145       144       146       145       144       147       146       144       147
       144       147       148       144       147       153       148       147       153
       147       148       149       147       148       150       149       148       150
       148       150       151       148       150       152       151       150       152
       150       152       153       150       152       158       153       152       158
       147       153       152       147       153       154       152       153       154
       153       154       155       153       154       156       155       154       156
       154       156       157       154       156       160       157       156       160
       152       158       159       152       158       160       159       158       160
       156       160       158       156       160       161       158       160       161
       142       162       163       142       162       164       163       162       164
       162       164       165       162       164       166       165       164       166
       164       166       167       164       166       168       164       166       181
       167       166       168       167       166       181       168       166       181
       166       168       169       166       168       170       166       168       171
       169       168       170       169       168       171       170       168       171
       168       171       172       168       171       173       168       171       177
       172       171       173       172       171       177       173       171       177
       171       173       174       171       173       175       171       173       176
       174       173       175       174       173       176       175       173       176
       171       177       178       171       177       179       171       177       180
       178       177       179       178       177       180       179       177       180
       166       181       182       166       181       183       182       181       183
       181       183       184       181       183       185       184       183       185
       183       185       186       183       185       187       183       185       205
       186       185       187       186       185       205       187       185       205
       185       187       188       185       187       189       185       187       190
       188       187       189       188       187       190       189       187       190
       187       190       191       187       190       196       191       190       196
       190       191       192       190       191       193       192       191       193
       191       193       194       191       193       195       194       193       195
       193       195       196       193       195       201       196       195       201
       190       196       195       190       196       197       195       196       197
       196       197       198       196       197       199       198       197       199
       197       199       200       197       199       203       200       199       203
       195       201       202       195       201       203       202       201       203
       199       203       201       199       203       204       201       203       204
       185       205       206       185       205       207       206       205       207
       205       207       208       205       207       209       208       207       209
       207       209       210       207       209       211       207       209       224
       210       209       211       210       209       224       211       209       224
       209       211       212       209       211       213       209       211       214
       212       211       213       212       211       214       213       211       214
       211       214       215       211       214       216       211       214       220
       215       214       216       215       214       220       216       214       220
       214       216       217       214       216       218       214       216       219
       217       216       218       217       216       219       218       216       219
       214       220       221       214       220       222       214       220       223
       221       220       222       221       220       223       222       220       223
       209       224       225       209       224       226       225       224       226
       224       226       227       224       226       228       227       226       228
       226       228       229       226       228       230       226       228       248
       229       228       230       229       228       248       230       228       248
       228       230       231       228       230       232       228       230       233
       231       230       232       231       230       233       232       230       233
       230       233       234       230       233       239       234       233       239
       233       234       235       233       234       236       235       234       236
       234       236       237       234       236       238       237       236       238
       236       238       239       236       238       244       239       238       244
       233       239       238       233       239       240       238       239       240
       239       240       241       239       240       242       241       240       242
       240       242       243       240       242       246       243       242       246
       238       244       245       238       244       246       245       244       246
       242       246       244       242       246       247       244       246       247
       228       248       249       228       248       250       249       248       250
       252       251       253       252       251       254       252       251       255
       253       251       254       253       251       255       254       251       255
       251       255       256       251       255       257       251       255       258
       256       255       257       256       255       258       257       255       258
       255       258       259       255       258       260       259       258       260
       258       260       261       258       260       262       261       260       262
       260       262       263       260       262       264       260       262       268
       263       262       264       263       262       268       264       262       268
       262       264       265       262       264       266       262       264       267
       265       264       266       265       264       267       266       264       267
       262       268       269       262       268       270       269       268       270
       268       270       271       268       270       272       271       270       272
       270       272       273       270       272       274       270       272       287
       273       272       274       273       272       287       274       272       287
       272       274       275       272       274       276       272       274       277
       275       274       276       275       274       277       276       274       277
       274       277       278       274       277       279       274       277       283
       278       277       279       278       277       283       279       277       283
       277       279       280       277       279       281       277       279       282
       280       279       281       280       279       282       281       279       282
       277       283       284       277       283       285       277       283       286
       284       283       285       284       283       286       285       283       286
       272       287       288       272       287       289       288       287       289
       287       289       290       287       289       291       290       289       291
       289       291       292       289       291       293       289       291       297
       292       291       293       292       291       297       293       291       297
       291       293       294       291       293       295       291       293       296
       294       293       295       294       293       296       295       293       296
       291       297       298       291       297       299       298       297       299
       297       299       300       297       299       301       300       299       301
       299       301       302       299       301       303       299       301       313
       302       301       303       302       301       313       303       301       313
       301       303       304       301       303       305       301       303       309
       304       303       305       304       303       309       305       303       309
       303       305       306       303       305       307       303       305       308
       306       305       307       306       305       308       307       305       308
       303       309       310       303       309       311       303       309       312
       310       309       311       310       309       312       311       309       312
       301       313       314       301       313       315       314       313       315
       313       315       316       313       315       317       316       315       317
       315       317       318       315       317       319       315       317       329
       318       317       319       318       317       329       319       317       329
       317       319       320       317       319       321       317       319       325
       320       319       321       320       319       325       321       319       325
       319       321       322       319       321       323       319       321       324
       322       321       323       322       321       324       323       321       324
       319       325       326       319       325       327       319       325       328
       326       325       327       326       325       328       327       325       328
       317       329       330       317       329       331       330       329       331
       329       331       332       329       331       333       332       331       333
       331       333       334       331       333       335       331       333       345
       334       333       335       334       333       345       335       333       345
       333       335       336       333       335       337       333       335       341
       336       335       337       336       335       341       337       335       341
       335       337       338       335       337       339       335       337       340
       338       337       339       338       337       340       339       337       340
       335       341       342       335       341       343       335       341       344
       342       341       343       342       341       344       343       341       344
       333       345       346       333       345       347       346       345       347
       345       347       348       345       347       349       348       347       349
       347       349       350       347       349       351       347       349       369
       350       349       351       350       349       369       351       349       369
       349       351       352       349       351       353       349       351       354
       352       351       353       352       351       354       353       351       354
       351       354       355       351       354       360       355       354       360
       354       355       356       354       355       357       356       355       357
       355       357       358       355       357       359       358       357       359
       357       359       360       357       359       365       360       359       365
       354       360       359       354       360       361       359       360       361
       360       361       362       360       361       363       362       361       363
       361       363       364       361       363       367       364       363       367
       359       365       366       359       365       367       366       365       367
       363       367       365       363       367       368       365       367       368
       349       369       370       349       369       371       370       369       371
       369       371       372       369       371       373       372       371       373
       371       373       374       371       373       375       371       373       388
       374       373       375       374       373       388       375       373       388
       373       375       376       373       375       377       373       375       378
       376       375       377       376       375       378       377       375       378
       375       378       379       375       378       380       375       378       384
       379       378       380       379       378       384       380       378       384
       378       380       381       378       380       382       378       380       383
       381       380       382       381       380       383       382       380       383
       378       384       385       378       384       386       378       384       387
       385       384       386       385       384       387       386       384       387
       373       388       389       373       388       390       389       388       390
       388       390       391       388       390       392       391       390       392
       390       392       393       390       392       394       390       392       412
       393       392       394       393       392       412       394       392       412
       392       394       395       392       394       396       392       394       397
       395       394       396       395       394       397       396       394       397
       394       397       398       394       397       403       398       397       403
       397       398       399       397       398       400       399       398       400
       398       400       401       398       400       402       401       400       402
       400       402       403       400       402       408       403       402       408
       397       403       402       397       403       404       402       403       404
       403       404       405       403       404       406       405       404       406
       404       406       407       404       406       410       407       406       410
       402       408       409       402       408       410       409       408       410
       406       410       408       406       410       411       408       410       411
       392       412       413       392       412       414       413       412       414
       412       414       415       412       414       416       415       414       416
       414       416       417       414       416       418       414       416       431
       417       416       418       417       416       431       418       416       431
       416       418       419       416       418       420       416       418       421
       419       418       420       419       418       421       420       418       421
       418       421       422       418       421       423       418       421       427
       422       421       423       422       421       427       423       421       427
       421       423       424       421       423       425       421       423       426
       424       423       425       424       423       426       425       423       426
       421       427       428       421       427       429       421       427       430
       428       427       429       428       427       430       429       427       430
       416       431       432       416       431       433       432       431       433
       431       433       434       431       433       435       434       433       435
       433       435       436       433       435       437       433       435       455
       436       435       437       436       435       455       437       435       455
       435       437       438       435       437       439       435       437       440
       438       437       439       438       437       440       439       437       440
       437       440       441       437       440       446       441       440       446
       440       441       442       440       441       443       442       441       443
       441       443       444       441       443       445       444       443       445
       443       445       446       443       445       451       446       445       451
       440       446       445       440       446       447       445       446       447
       446       447       448       446       447       449       448       447       449
       447       449       450       447       449       453       450       449       453
       445       451       452       445       451       453       452       451       453
       449       453       451       449       453       454       451       453       454
       435       455       456       435       455       457       456       455       457
       455       457       458       455       457       459       458       457       459
       457       459       460       457       459       461       457       459       474
       460       459       461       460       459       474       461       459       474
       459       461       462       459       461       463       459       461       464
       462       461       463       462       461       464       463       461       464
       461       464       465       461       464       466       461       464       470
       465       464       466       465       464       470       466       464       470
       464       466       467       464       466       468       464       466       469
       467       466       468       467       466       469       468       466       469
       464       470       471       464       470       472       464       470       473
       471       470       472       471       470       473       472       470       473
       459       474       475       459       474       476       475       474       476
       474       476       477       474       476       478       477       476       478
       476       478       479       476       478       480       476       478       498
       479       478       480       479       478       498       480       478       498
       478       480       481       478       480       482       478       480       483
       481       480       482       481       480       483       482       480       483
       480       483       484       480       483       489       484       483       489
       483       484       485       483       484       486       485       484       486
       484       486       487       484       486       488       487       486       488
       486       488       489       486       488       494       489       488       494
       483       489       488       483       489       490       488       489       490
       489       490       491       489       490       492       491       490       492
       490       492       493       490       492       496       493       492       496
       488       494       495       488       494       496       495       494       496
       492       496       494       492       496       497       494       496       497
       478       498       499       478       498       500       499       498       500
       501       502       503       501       502       504       501       502       517
       501       505       506       501       505       507       501       505       508
       501       509       510       501       509       511       501       509       512
       501       513       514       501       513       515       501       513       516
       502       501       505       502       501       509       502       501       513
       502       517       518       502       517       519       502       517       523
       503       502       504       503       502       517       504       502       517
       505       501       509       505       501       513       506       505       507
       506       505       508       507       505       508       509       501       513
       510       509       511       510       509       512       511       509       512
       514       513       515       514       513       516       515       513       516
       517       523       520       518       517       519       518       517       523
       519       517       523       520       524       525       521       520       522
       521       520       523       521       520       524       522       520       523
       522       520       524       523       520       524       524       525       526
       524       525       527       524       525       528       525       528       529
       525       528       530       525       528       536       526       525       527
       526       525       528       527       525       528       528       530       531
       528       536       537       528       536       538       528       536       539
       529       528       530       529       528       536       530       528       536
       530       531       532       530       531       533       531       533       534
       531       533       535       531       533       545       532       531       533
       533       545       546       533       545       547       533       545       548
       534       533       535       534       533       545       535       533       545
       536       539       540       537       536       538       537       536       539
       538       536       539       539       540       541       539       540       542
       540       542       543       540       542       544       540       542       592
       541       540       542       542       592       593       542       592       594
       542       592       595       543       542       544       543       542       592
       544       542       592       545       548       549       545       548       550
       545       548       551       546       545       547       546       545       548
       547       545       548       548       551       552       548       551       553
       548       551       554       549       548       550       549       548       551
       550       548       551       551       554       555       551       554       556
       551       554       557       552       551       553       552       551       554
       553       551       554       554       557       558       554       557       559
       554       557       560       555       554       556       555       554       557
       556       554       557       557       560       561       557       560       562
       557       560       563       558       557       559       558       557       560
       559       557       560       560       563       564       560       563       565
       561       560       562       561       560       563       562       560       563
       563       565       566       563       565       567       564       563       565
       565       567       568       565       567       569       565       567       570
       566       565       567       567       570       571       567       570       572
       567       570       573       568       567       569       568       567       570
       569       567       570       570       573       574       570       573       575
       570       573       576       571       570       572       571       570       573
       572       570       573       573       576       577       573       576       578
       573       576       579       574       573       575       574       573       576
       575       573       576       576       579       580       576       579       581
       576       579       582       577       576       578       577       576       579
       578       576       579       579       582       583       579       582       584
       579       582       585       580       579       581       580       579       582
       581       579       582       582       585       586       582       585       587
       582       585       588       583       582       584       583       582       585
       584       582       585       585       588       589       585       588       590
       585       588       591       586       585       587       586       585       588
       587       585       588       589       588       590       589       588       591
       590       588       591       592       595       596       592       595       597
       592       595       598       593       592       594       593       592       595
       594       592       595       595       598       599       595       598       600
       595       598       601       596       595       597       596       595       598
       597       595       598       598       601       602       598       601       603
       598       601       604       599       598       600       599       598       601
       600       598       601       601       604       605       601       604       606
       601       604       607       602       601       603       602       601       604
       603       601       604       604       607       608       604       607       609
       604       607       610       605       604       606       605       604       607
       606       604       607       607       610       611       607       610       612
       608       607       609       608       607       610       609       607       610
       610       612       613       610       612       614       611       610       612
       612       614       615       612       614       616       612       614       617
       613       612       614       614       617       618       614       617       619
       614       617       620       615       614       616       615       614       617
       616       614       617       617       620       621       617       620       622
       617       620       623       618       617       619       618       617       620
       619       617       620       620       623       624       620       623       625
       620       623       626       621       620       622       621       620       623
       622       620       623       623       626       627       623       626       628
       623       626       629       624       623       625       624       623       626
       625       623       626       626       629       630       626       629       631
       626       629       632       627       626       628       627       626       629
       628       626       629       629       632       633       629       632       634
       629       632       635       630       629       631       630       629       632
       631       629       632       632       635       636       632       635       637
       632       635       638       633       632       634       633       632       635
       634       632       635       636       635       637       636       635       638
       637       635       638       639       640       641       639       640       642
       639       640       655       639       643       644       639       643       645
       639       643       646       639       647       648       639       647       649
       639       647       650       639       651       652       639       651       653
       639       651       654       640       639       643       640       639       647
       640       639       651       640       655       656       640       655       657
       640       655       661       641       640       642       641       640       655
       642       640       655       643       639       647       643       639       651
       644       643       645       644       643       646       645       643       646
       647       639       651       648       647       649       648       647       650
       649       647       650       652       651       653       652       651       654
       653       651       654       655       661       658       656       655       657
       656       655       661       657       655       661       658       662       663
       659       658       660       659       658       661       659       658       662
       660       658       661       660       658       662       661       658       662
       662       663       664       662       663       665       662       663       666
       663       666       667       663       666       668       663       666       674
       664       663       665       664       663       666       665       663       666
       666       668       669       666       674       675       666       674       676
       666       674       677       667       666       668       667       666       674
       668       666       674       668       669       670       668       669       671
       669       671       672       669       671       673       669       671       683
       670       669       671       671       683       684       671       683       685
       671       683       686       672       671       673       672       671       683
       673       671       683       674       677       678       675       674       676
       675       674       677       676       674       677       677       678       679
       677       678       680       678       680       681       678       680       682
       678       680       730       679       678       680       680       730       731
       680       730       732       680       730       733       681       680       682
       681       680       730       682       680       730       683       686       687
       683       686       688       683       686       689       684       683       685
       684       683       686       685       683       686       686       689       690
       686       689       691       686       689       692       687       686       688
       687       686       689       688       686       689       689       692       693
       689       692       694       689       692       695       690       689       691
       690       689       692       691       689       692       692       695       696
       692       695       697       692       695       698       693       692       694
       693       692       695       694       692       695       695       698       699
       695       698       700       695       698       701       696       695       697
       696       695       698       697       695       698       698       701       702
       698       701       703       699       698       700       699       698       701
       700       698       701       701       703       704       701       703       705
       702       701       703       703       705       706       703       705       707
       703       705       708       704       703       705       705       708       709
       705       708       710       705       708       711       706       705       707
       706       705       708       707       705       708       708       711       712
       708       711       713       708       711       714       709       708       710
       709       708       711       710       708       711       711       714       715
       711       714       716       711       714       717       712       711       713
       712       711       714       713       711       714       714       717       718
       714       717       719       714       717       720       715       714       716
       715       714       717       716       714       717       717       720       721
       717       720       722       717       720       723       718       717       719
       718       717       720       719       717       720       720       723       724
       720       723       725       720       723       726       721       720       722
       721       720       723       722       720       723       723       726       727
       723       726       728       723       726       729       724       723       725
       724       723       726       725       723       726       727       726       728
       727       726       729       728       726       729       730       733       734
       730       733       735       730       733       736       731       730       732
       731       730       733       732       730       733       733       736       737
       733       736       738       733       736       739       734       733       735
       734       733       736       735       733       736       736       739       740
       736       739       741       736       739       742       737       736       738
       737       736       739       738       736       739       739       742       743
       739       742       744       739       742       745       740       739       741
       740       739       742       741       739       742       742       745       746
       742       745       747       742       745       748       743       742       744
       743       742       745       744       742       745       745       748       749
       745       748       750       746       745       747       746       745       748
       747       745       748       748       750       751       748       750       752
       749       748       750       750       752       753       750       752       754
       750       752       755       751       750       752       752       755       756
       752       755       757       752       755       758       753       752       754
       753       752       755       754       752       755       755       758       759
       755       758       760       755       758       761       756       755       757
       756       755       758       757       755       758       758       761       762
       758       761       763       758       761       764       759       758       760
       759       758       761       760       758       761       761       764       765
       761       764       766       761       764       767       762       761       763
       762       761       764       763       761       764       764       767       768
       764       767       769       764       767       770       765       764       766
       765       764       767       766       764       767       767       770       771
       767       770       772       767       770       773       768       767       769
       768       767       770       769       767       770       770       773       774
       770       773       775       770       773       776       771       770       772
       771       770       773       772       770       773       774       773       775
       774       773       776       775       773       776       777       778       779
       777       778       780       777       778       793       777       781       782
       777       781       783       777       781       784       777       785       786
       777       785       787       777       785       788       777       789       790
       777       789       791       777       789       792       778       777       781
       778       777       785       778       777       789       778       793       794
       778       793       795       778       793       799       779       778       780
       779       778       793       780       778       793       781       777       785
       781       777       789       782       781       783       782       781       784
       783       781       784       785       777       789       786       785       787
       786       785       788       787       785       788       790       789       791
       790       789       792       791       789       792       793       799       796
       794       793       795       794       793       799       795       793       799
       796       800       801       797       796       798       797       796       799
       797       796       800       798       796       799       798       796       800
       799       796       800       800       801       802       800       801       803
       800       801       804       801       804       805       801       804       806
       801       804       812       802       801       803       802       801       804
       803       801       804       804       806       807       804       812       813
       804       812       814       804       812       815       805       804       806
       805       804       812       806       804       812       806       807       808
       806       807       809       807       809       810       807       809       811
       807       809       821       808       807       809       809       821       822
       809       821       823       809       821       824       810       809       811
       810       809       821       811       809       821       812       815       816
       813       812       814       813       812       815       814       812       815
       815       816       817       815       816       818       816       818       819
       816       818       820       816       818       868       817       816       818
       818       868       869       818       868       870       818       868       871
       819       818       820       819       818       868       820       818       868
       821       824       825       821       824       826       821       824       827
       822       821       823       822       821       824       823       821       824
       824       827       828       824       827       829       824       827       830
       825       824       826       825       824       827       826       824       827
       827       830       831       827       830       832       827       830       833
       828       827       829       828       827       830       829       827       830
       830       833       834       830       833       835       830       833       836
       831       830       832       831       830       833       832       830       833
       833       836       837       833       836       838       833       836       839
       834       833       835       834       833       836       835       833       836
       836       839       840       836       839       841       837       836       838
       837       836       839       838       836       839       839       841       842
       839       841       843       840       839       841       841       843       844
       841       843       845       841       843       846       842       841       843
       843       846       847       843       846       848       843       846       849
       844       843       845       844       843       846       845       843       846
       846       849       850       846       849       851       846       849       852
       847       846       848       847       846       849       848       846       849
       849       852       853       849       852       854       849       852       855
       850       849       851       850       849       852       851       849       852
       852       855       856       852       855       857       852       855       858
       853       852       854       853       852       855       854       852       855
       855       858       859       855       858       860       855       858       861
       856       855       857       856       855       858       857       855       858
       858       861       862       858       861       863       858       861       864
       859       858       860       859       858       861       860       858       861
       861       864       865       861       864       866       861       864       867
       862       861       863       862       861       864       863       861       864
       865       864       866       865       864       867       866       864       867
       868       871       872       868       871       873       868       871       874
       869       868       870       869       868       871       870       868       871
       871       874       875       871       874       876       871       874       877
       872       871       873       872       871       874       873       871       874
       874       877       878       874       877       879       874       877       880
       875       874       876       875       874       877       876       874       877
       877       880       881       877       880       882       877       880       883
       878       877       879       878       877       880       879       877       880
       880       883       884       880       883       885       880       883       886
       881       880       882       881       880       883       882       880       883
       883       886       887       883       886       888       884       883       885
       884       883       886       885       883       886       886       888       889
       886       888       890       887       886       888       888       890       891
       888       890       892       888       890       893       889       888       890
       890       893       894       890       893       895       890       893       896
       891       890       892       891       890       893       892       890       893
       893       896       897       893       896       898       893       896       899
       894       893       895       894       893       896       895       893       896
       896       899       900       896       899       901       896       899       902
       897       896       898       897       896       899       898       896       899
       899       902       903       899       902       904       899       902       905
       900       899       901       900       899       902       901       899       902
       902       905       906       902       905       907       902       905       908
       903       902       904       903       902       905       904       902       905
       905       908       909       905       908       910       905       908       911
       906       905       907       906       905       908       907       905       908
       908       911       912       908       911       913       908       911       914
       909       908       910       909       908       911       910       908       911
       912       911       913       912       911       914       913       911       914
       915       916       917       915       916       918       915       916       931
       915       919       920       915       919       921       915       919       922
       915       923       924       915       923       925       915       923       926
       915       927       928       915       927       929       915       927       930
       916       915       919       916       915       923       916       915       927
       916       931       932       916       931       933       916       931       937
       917       916       918       917       916       931       918       916       931
       919       915       923       919       915       927       920       919       921
       920       919       922       921       919       922       923       915       927
       924       923       925       924       923       926       925       923       926
       928       927       929       928       927       930       929       927       930
       931       937       934       932       931       933       932       931       937
       933       931       937       934       938       939       935       934       936
       935       934       937       935       934       938       936       934       937
       936       934       938       937       934       938       938       939       940
       938       939       941       938       939       942       939       942       943
       939       942       944       939       942       950       940       939       941
       940       939       942       941       939       942       942       944       945
       942       950       951       942       950       952       942       950       953
       943       942       944       943       942       950       944       942       950
       944       945       946       944       945       947       945       947       948
       945       947       949       945       947       959       946       945       947
       947       959       960       947       959       961       947       959       962
       948       947       949       948       947       959       949       947       959
       950       953       954       951       950       952       951       950       953
       952       950       953       953       954       955       953       954       956
       954       956       957       954       956       958       954       956      1006
       955       954       956       956      1006      1007       956      1006      1008
       956      1006      1009       957       956       958       957       956      1006
       958       956      1006       959       962       963       959       962       964
       959       962       965       960       959       961       960       959       962
       961       959       962       962       965       966       962       965       967
       962       965       968       963       962       964       963       962       965
       964       962       965       965       968       969       965       968       970
       965       968       971       966       965       967       966       965       968
       967       965       968       968       971       972       968       971       973
       968       971       974       969       968       970       969       968       971
       970       968       971       971       974       975       971       974       976
       971       974       977       972       971       973       972       971       974
       973       971       974       974       977       978       974       977       979
       975       974       976       975       974       977       976       974       977
       977       979       980       977       979       981       978       977       979
       979       981       982       979       981       983       979       981       984
       980       979       981       981       984       985       981       984       986
       981       984       987       982       981       983       982       981       984
       983       981       984       984       987       988       984       987       989
       984       987       990       985       984       986       985       984       987
       986       984       987       987       990       991       987       990       992
       987       990       993       988       987       989       988       987       990
       989       987       990       990       993       994       990       993       995
       990       993       996       991       990       992       991       990       993
       992       990       993       993       996       997       993       996       998
       993       996       999       994       993       995       994       993       996
       995       993       996       996       999      1000       996       999      1001
       996       999      1002       997       996       998       997       996       999
       998       996       999       999      1002      1003       999      1002      1004
       999      1002      1005      1000       999      1001      1000       999      1002
      1001       999      1002      1003      1002      1004      1003      1002      1005
      1004      1002      1005      1006      1009      1010      1006      1009      1011
      1006      1009      1012      1007      1006      1008      1007      1006      1009
      1008      1006      1009      1009      1012      1013      1009      1012      1014
      1009      1012      1015      1010      1009      1011      1010      1009      1012
      1011      1009      1012      1012      1015      1016      1012      1015      1017
      1012      1015      1018      1013      1012      1014      1013      1012      1015
      1014      1012      1015      1015      1018      1019      1015      1018      1020
      1015      1018      1021      1016      1015      1017      1016      1015      1018
      1017      1015      1018      1018      1021      1022      1018      1021      1023
      1018      1021      1024      1019      1018      1020      1019      1018      1021
      1020      1018      1021      1021      1024      1025      1021      1024      1026
      1022      1021      1023      1022      1021      1024      1023      1021      1024
      1024      1026      1027      1024      1026      1028      1025      1024      1026
      1026      1028      1029      1026      1028      1030      1026      1028      1031
      1027      1026      1028      1028      1031      1032      1028      1031      1033
      1028      1031      1034      1029      1028      1030      1029      1028      1031
      1030      1028      1031      1031      1034      1035      1031      1034      1036
      1031      1034      1037      1032      1031      1033      1032      1031      1034
      1033      1031      1034      1034      1037      1038      1034      1037      1039
      1034      1037      1040      1035      1034      1036      1035      1034      1037
      1036      1034      1037      1037      1040      1041      1037      1040      1042
      1037      1040      1043      1038      1037      1039      1038      1037      1040
      1039      1037      1040      1040      1043      1044      1040      1043      1045
      1040      1043      1046      1041      1040      1042      1041      1040      1043
      1042      1040      1043      1043      1046      1047      1043      1046      1048
      1043      1046      1049      1044      1043      1045      1044      1043      1046
      1045      1043      1046      1046      1049      1050      1046      1049      1051
      1046      1049      1052      1047      1046      1048      1047      1046      1049
      1048      1046      1049      1050      1049      1051      1050      1049      1052
      1051      1049      1052      1053      1054      1055      1053      1054      1056
      1053      1054      1069      1053      1057      1058      1053      1057      1059
      1053      1057      1060      1053      1061      1062      1053      1061      1063
      1053      1061      1064      1053      1065      1066      1053      1065      1067
      1053      1065      1068      1054      1053      1057      1054      1053      1061
      1054      1053      1065      1054      1069      1070      1054      1069      1071
      1054      1069      1075      1055      1054      1056      1055      1054      1069
      1056      1054      1069      1057      1053      1061      1057      1053      1065
      1058      1057      1059      1058      1057      1060      1059      1057      1060
      1061      1053      1065      1062      1061      1063      1062      1061      1064
      1063      1061      1064      1066      1065      1067      1066      1065      1068
      1067      1065      1068      1069      1075      1072      1070      1069      1071
      1070      1069      1075      1071      1069      1075      1072      1076      1077
      1073      1072      1074      1073      1072      1075      1073      1072      1076
      1074      1072      1075      1074      1072      1076      1075      1072      1076
      1076      1077      1078      1076      1077      1079      1076      1077      1080
      1077      1080      1081      1077      1080      1082      1077      1080      1088
      1078      1077      1079      1078      1077      1080      1079      1077      1080
      1080      1082      1083      1080      1088      1089      1080      1088      1090
      1080      1088      1091      1081      1080      1082      1081      1080      1088
      1082      1080      1088      1082      1083      1084      1082      1083      1085
      1083      1085      1086      1083      1085      1087      1083      1085      1097
      1084      1083      1085      1085      1097      1098      1085      1097      1099
      1085      1097      1100      1086      1085      1087      1086      1085      1097
      1087      1085      1097      1088      1091      1092      1089      1088      1090
      1089      1088      1091      1090      1088      1091      1091      1092      1093
      1091      1092      1094      1092      1094      1095      1092      1094      1096
      1092      1094      1144      1093      1092      1094      1094      1144      1145
      1094      1144      1146      1094      1144      1147      1095      1094      1096
      1095      1094      1144      1096      1094      1144      1097      1100      1101
      1097      1100      1102      1097      1100      1103      1098      1097      1099
      1098      1097      1100      1099      1097      1100      1100      1103      1104
      1100      1103      1105      1100      1103      1106      1101      1100      1102
      1101      1100      1103      1102      1100      1103      1103      1106      1107
      1103      1106      1108      1103      1106      1109      1104      1103      1105
      1104      1103      1106      1105      1103      1106      1106      1109      1110
      1106      1109      1111      1106      1109      1112      1107      1106      1108
      1107      1106      1109      1108      1106      1109      1109      1112      1113
      1109      1112      1114      1109      1112      1115      1110      1109      1111
      1110      1109      1112      1111      1109      1112      1112      1115      1116
      1112      1115      1117      1113      1112      1114      1113      1112      1115
      1114      1112      1115      1115      1117      1118      1115      1117      1119
      1116      1115      1117      1117      1119      1120      1117      1119      1121
      1117      1119      1122      1118      1117      1119      1119      1122      1123
      1119      1122      1124      1119      1122      1125      1120      1119      1121
      1120      1119      1122      1121      1119      1122      1122      1125      1126
      1122      1125      1127      1122      1125      1128      1123      1122      1124
      1123      1122      1125      1124      1122      1125      1125      1128      1129
      1125      1128      1130      1125      1128      1131      1126      1125      1127
      1126      1125      1128      1127      1125      1128      1128      1131      1132
      1128      1131      1133      1128      1131      1134      1129      1128      1130
      1129      1128      1131      1130      1128      1131      1131      1134      1135
      1131      1134      1136      1131      1134      1137      1132      1131      1133
      1132      1131      1134      1133      1131      1134      1134      1137      1138
      1134      1137      1139      1134      1137      1140      1135      1134      1136
      1135      1134      1137      1136      1134      1137      1137      1140      1141
      1137      1140      1142      1137      1140      1143      1138      1137      1139
      1138      1137      1140      1139      1137      1140      1141      1140      1142
      1141      1140      1143      1142      1140      1143      1144      1147      1148
      1144      1147      1149      1144      1147      1150      1145      1144      1146
      1145      1144      1147      1146      1144      1147      1147      1150      1151
      1147      1150      1152      1147      1150      1153      1148      1147      1149
      1148      1147      1150      1149      1147      1150      1150      1153      1154
      1150      1153      1155      1150      1153      1156      1151      1150      1152
      1151      1150      1153      1152      1150      1153      1153      1156      1157
      1153      1156      1158      1153      1156      1159      1154      1153      1155
      1154      1153      1156      1155      1153      1156      1156      1159      1160
      1156      1159      1161      1156      1159      1162      1157      1156      1158
      1157      1156      1159      1158      1156      1159      1159      1162      1163
      1159      1162      1164      1160      1159      1161      1160      1159      1162
      1161      1159      1162      1162      1164      1165      1162      1164      1166
      1163      1162      1164      1164      1166      1167      1164      1166      1168
      1164      1166      1169      1165      1164      1166      1166      1169      1170
      1166      1169      1171      1166      1169      1172      1167      1166      1168
      1167      1166      1169      1168      1166      1169      1169      1172      1173
      1169      1172      1174      1169      1172      1175      1170      1169      1171
      1170      1169      1172      1171      1169      1172      1172      1175      1176
      1172      1175      1177      1172      1175      1178      1173      1172      1174
      1173      1172      1175      1174      1172      1175      1175      1178      1179
      1175      1178      1180      1175      1178      1181      1176      1175      1177
      1176      1175      1178      1177      1175      1178      1178      1181      1182
      1178      1181      1183      1178      1181      1184      1179      1178      1180
      1179      1178      1181      1180      1178      1181      1181      1184      1185
      1181      1184      1186      1181      1184      1187      1182      1181      1183
      1182      1181      1184      1183      1181      1184      1184      1187      1188
      1184      1187      1189      1184      1187      1190      1185      1184      1186
      1185      1184      1187      1186      1184      1187      1188      1187      1189
      1188      1187      1190      1189      1187      1190      1191      1192      1193
      1191      1192      1194      1191      1192      1207      1191      1195      1196
      1191      1195      1197      1191      1195      1198      1191      1199      1200
      1191      1199      1201      1191      1199      1202      1191      1203      1204
      1191      1203      1205      1191      1203      1206      1192      1191      1195
      1192      1191      1199      1192      1191      1203      1192      1207      1208
      1192      1207      1209      1192      1207      1213      1193      1192      1194
      1193      1192      1207      1194      1192      1207      1195      1191      1199
      1195      1191      1203      1196      1195      1197      1196      1195      1198
      1197      1195      1198      1199      1191      1203      1200      1199      1201
      1200      1199      1202      1201      1199      1202      1204      1203      1205
      1204      1203      1206      1205      1203      1206      1207      1213      1210
      1208      1207      1209      1208      1207      1213      1209      1207      1213
      1210      1214      1215      1211      1210      1212      1211      1210      1213
      1211      1210      1214      1212      1210      1213      1212      1210      1214
      1213      1210      1214      1214      1215      1216      1214      1215      1217
      1214      1215      1218      1215      1218      1219      1215      1218      1220
      1215      1218      1226      1216      1215      1217      1216      1215      1218
      1217      1215      1218      1218      1220      1221      1218      1226      1227
      1218      1226      1228      1218      1226      1229      1219      1218      1220
      1219      1218      1226      1220      1218      1226      1220      1221      1222
      1220      1221      1223      1221      1223      1224      1221      1223      1225
      1221      1223      1235      1222      1221      1223      1223      1235      1236
      1223      1235      1237      1223      1235      1238      1224      1223      1225
      1224      1223      1235      1225      1223      1235      1226      1229      1230
      1227      1226      1228      1227      1226      1229      1228      1226      1229
      1229      1230      1231      1229      1230      1232      1230      1232      1233
      1230      1232      1234      1230      1232      1282      1231      1230      1232
      1232      1282      1283      1232      1282      1284      1232      1282      1285
      1233      1232      1234      1233      1232      1282      1234      1232      1282
      1235      1238      1239      1235      1238      1240      1235      1238      1241
      1236      1235      1237      1236      1235      1238      1237      1235      1238
      1238      1241      1242      1238      1241      1243      1238      1241      1244
      1239      1238      1240      1239      1238      1241      1240      1238      1241
      1241      1244      1245      1241      1244      1246      1241      1244      1247
      1242      1241      1243      1242      1241      1244      1243      1241      1244
      1244      1247      1248      1244      1247      1249      1244      1247      1250
      1245      1244      1246      1245      1244      1247      1246      1244      1247
      1247      1250      1251      1247      1250      1252      1247      1250      1253
      1248      1247      1249      1248      1247      1250      1249      1247      1250
      1250      1253      1254      1250      1253      1255      1251      1250      1252
      1251      1250      1253      1252      1250      1253      1253      1255      1256
      1253      1255      1257      1254      1253      1255      1255      1257      1258
      1255      1257      1259      1255      1257      1260      1256      1255      1257
      1257      1260      1261      1257      1260      1262      1257      1260      1263
      1258      1257      1259      1258      1257      1260      1259      1257      1260
      1260      1263      1264      1260      1263      1265      1260      1263      1266
      1261      1260      1262      1261      1260      1263      1262      1260      1263
      1263      1266      1267      1263      1266      1268      1263      1266      1269
      1264      1263      1265      1264      1263      1266      1265      1263      1266
      1266      1269      1270      1266      1269      1271      1266      1269      1272
      1267      1266      1268      1267      1266      1269      1268      1266      1269
      1269      1272      1273      1269      1272      1274      1269      1272      1275
      1270      1269      1271      1270      1269      1272      1271      1269      1272
      1272      1275      1276      1272      1275      1277      1272      1275      1278
      1273      1272      1274      1273      1272      1275      1274      1272      1275
      1275      1278      1279      1275      1278      1280      1275      1278      1281
      1276      1275      1277      1276      1275      1278      1277      1275      1278
      1279      1278      1280      1279      1278      1281      1280      1278      1281
      1282      1285      1286      1282      1285      1287      1282      1285      1288
      1283      1282      1284      1283      1282      1285      1284      1282      1285
      1285      1288      1289      1285      1288      1290      1285      1288      1291
      1286      1285      1287      1286      1285      1288      1287      1285      1288
      1288      1291      1292      1288      1291      1293      1288      1291      1294
      1289      1288      1290      1289      1288      1291      1290      1288      1291
      1291      1294      1295      1291      1294      1296      1291      1294      1297
      1292      1291      1293      1292      1291      1294      1293      1291      1294
      1294      1297      1298      1294      1297      1299      1294      1297      1300
      1295      1294      1296      1295      1294      1297      1296      1294      1297
      1297      1300      1301      1297      1300      1302      1298      1297      1299
      1298      1297      1300      1299      1297      1300      1300      1302      1303
      1300      1302      1304      1301      1300      1302      1302      1304      1305
      1302      1304      1306      1302      1304      1307      1303      1302      1304
      1304      1307      1308      1304      1307      1309      1304      1307      1310
      1305      1304      1306      1305      1304      1307      1306      1304      1307
      1307      1310      1311      1307      1310      1312      1307      1310      1313
      1308      1307      1309      1308      1307      1310      1309      1307      1310
      1310      1313      1314      1310      1313      1315      1310      1313      1316
      1311      1310      1312      1311      1310      1313      1312      1310      1313
      1313      1316      1317      1313      1316      1318      1313      1316      1319
      1314      1313      1315      1314      1313      1316      1315      1313      1316
      1316      1319      1320      1316      1319      1321      1316      1319      1322
      1317      1316      1318      1317      1316      1319      1318      1316      1319
      1319      1322      1323      1319      1322      1324      1319      1322      1325
      1320      1319      1321      1320      1319      1322      1321      1319      1322
      1322      1325      1326      1322      1325      1327      1322      1325      1328
      1323      1322      1324      1323      1322      1325      1324      1322      1325
      1326      1325      1327      1326      1325      1328      1327      1325      1328
      1329      1330      1331      1329      1330      1332      1329      1330      1345
      1329      1333      1334      1329      1333      1335      1329      1333      1336
      1329      1337      1338      1329      1337      1339      1329      1337      1340
      1329      1341      1342      1329      1341      1343      1329      1341      1344
      1330      1329      1333      1330      1329      1337      1330      1329      1341
      1330      1345      1346      1330      1345      1347      1330      1345      1351
      1331      1330      1332      1331      1330      1345      1332      1330      1345
      1333      1329      1337      1333      1329      1341      1334      1333      1335
      1334      1333      1336      1335      1333      1336      1337      1329      1341
      1338      1337      1339      1338      1337      1340      1339      1337      1340
      1342      1341      1343      1342      1341      1344      1343      1341      1344
      1345      1351      1348      1346      1345      1347      1346      1345      1351
      1347      1345      1351      1348      1352      1353      1349      1348      1350
      1349      1348      1351      1349      1348      1352      1350      1348      1351
      1350      1348      1352      1351      1348      1352      1352      1353      1354
      1352      1353      1355      1352      1353      1356      1353      1356      1357
      1353      1356      1358      1353      1356      1364      1354      1353      1355
      1354      1353      1356      1355      1353      1356      1356      1358      1359
      1356      1364      1365      1356      1364      1366      1356      1364      1367
      1357      1356      1358      1357      1356      1364      1358      1356      1364
      1358      1359      1360      1358      1359      1361      1359      1361      1362
      1359      1361      1363      1359      1361      1373      1360      1359      1361
      1361      1373      1374      1361      1373      1375      1361      1373      1376
      1362      1361      1363      1362      1361      1373      1363      1361      1373
      1364      1367      1368      1365      1364      1366      1365      1364      1367
      1366      1364      1367      1367      1368      1369      1367      1368      1370
      1368      1370      1371      1368      1370      1372      1368      1370      1420
      1369      1368      1370      1370      1420      1421      1370      1420      1422
      1370      1420      1423      1371      1370      1372      1371      1370      1420
      1372      1370      1420      1373      1376      1377      1373      1376      1378
      1373      1376      1379      1374      1373      1375      1374      1373      1376
      1375      1373      1376      1376      1379      1380      1376      1379      1381
      1376      1379      1382      1377      1376      1378      1377      1376      1379
      1378      1376      1379      1379      1382      1383      1379      1382      1384
      1379      1382      1385      1380      1379      1381      1380      1379      1382
      1381      1379      1382      1382      1385      1386      1382      1385      1387
      1382      1385      1388      1383      1382      1384      1383      1382      1385
      1384      1382      1385      1385      1388      1389      1385      1388      1390
      1385      1388      1391      1386      1385      1387      1386      1385      1388
      1387      1385      1388      1388      1391      1392      1388      1391      1393
      1389      1388      1390      1389      1388      1391      1390      1388      1391
      1391      1393      1394      1391      1393      1395      1392      1391      1393
      1393      1395      1396      1393      1395      1397      1393      1395      1398
      1394      1393      1395      1395      1398      1399      1395      1398      1400
      1395      1398      1401      1396      1395      1397      1396      1395      1398
      1397      1395      1398      1398      1401      1402      1398      1401      1403
      1398      1401      1404      1399      1398      1400      1399      1398      1401
      1400      1398      1401      1401      1404      1405      1401      1404      1406
      1401      1404      1407      1402      1401      1403      1402      1401      1404
      1403      1401      1404      1404      1407      1408      1404      1407      1409
      1404      1407      1410      1405      1404      1406      1405      1404      1407
      1406      1404      1407      1407      1410      1411      1407      1410      1412
      1407      1410      1413      1408      1407      1409      1408      1407      1410
      1409      1407      1410      1410      1413      1414      1410      1413      1415
      1410      1413      1416      1411      1410      1412      1411      1410      1413
      1412      1410      1413      1413      1416      1417      1413      1416      1418
      1413      1416      1419      1414      1413      1415      1414      1413      1416
      1415      1413      1416      1417      1416      1418      1417      1416      1419
      1418      1416      1419      1420      1423      1424      1420      1423      1425
      1420      1423      1426      1421      1420      1422      1421      1420      1423
      1422      1420      1423      1423      1426      1427      1423      1426      1428
      1423      1426      1429      1424      1423      1425      1424      1423      1426
      1425      1423      1426      1426      1429      1430      1426      1429      1431
      1426      1429      1432      1427      1426      1428      1427      1426      1429
      1428      1426      1429      1429      1432      1433      1429      1432      1434
      1429      1432      1435      1430      1429      1431      1430      1429      1432
      1431      1429      1432      1432      1435      1436      1432      1435      1437
      1432      1435      1438      1433      1432      1434      1433      1432      1435
      1434      1432      1435      1435      1438      1439      1435      1438      1440
      1436      1435      1437      1436      1435      1438      1437      1435      1438
      1438      1440      1441      1438      1440      1442      1439      1438      1440
      1440      1442      1443      1440      1442      1444      1440      1442      1445
      1441      1440      1442      1442      1445      1446      1442      1445      1447
      1442      1445      1448      1443      1442      1444      1443      1442      1445
      1444      1442      1445      1445      1448      1449      1445      1448      1450
      1445      1448      1451      1446      1445      1447      1446      1445      1448
      1447      1445      1448      1448      1451      1452      1448      1451      1453
      1448      1451      1454      1449      1448      1450      1449      1448      1451
      1450      1448      1451      1451      1454      1455      1451      1454      1456
      1451      1454      1457      1452      1451      1453      1452      1451      1454
      1453      1451      1454      1454      1457      1458      1454      1457      1459
      1454      1457      1460      1455      1454      1456      1455      1454      1457
      1456      1454      1457      1457      1460      1461      1457      1460      1462
      1457      1460      1463      1458      1457      1459      1458      1457      1460
      1459      1457      1460      1460      1463      1464      1460      1463      1465
      1460      1463      1466      1461      1460      1462      1461      1460      1463
      1462      1460      1463      1464      1463      1465      1464      1463      1466
      1465      1463      1466      1467      1468      1469      1467      1468      1470
      1467      1468      1483      1467      1471      1472      1467      1471      1473
      1467      1471      1474      1467      1475      1476      1467      1475      1477
      1467      1475      1478      1467      1479      1480      1467      1479      1481
      1467      1479      1482      1468      1467      1471      1468      1467      1475
      1468      1467      1479      1468      1483      1484      1468      1483      1485
      1468      1483      1489      1469      1468      1470      1469      1468      1483
      1470      1468      1483      1471      1467      1475      1471      1467      1479
      1472      1471      1473      1472      1471      1474      1473      1471      1474
      1475      1467      1479      1476      1475      1477      1476      1475      1478
      1477      1475      1478      1480      1479      1481      1480      1479      1482
      1481      1479      1482      1483      1489      1486      1484      1483      1485
      1484      1483      1489      1485      1483      1489      1486      1490      1491
      1487      1486      1488      1487      1486      1489      1487      1486      1490
      1488      1486      1489      1488      1486      1490      1489      1486      1490
      1490      1491      1492      1490      1491      1493      1490      1491      1494
      1491      1494      1495      1491      1494      1496      1491      1494      1502
      1492      1491      1493      1492      1491      1494      1493      1491      1494
      1494      1496      1497      1494      1502      1503      1494      1502      1504
      1494      1502      1505      1495      1494      1496      1495      1494      1502
      1496      1494      1502      1496      1497      1498      1496      1497      1499
      1497      1499      1500      1497      1499      1501      1497      1499      1511
      1498      1497      1499      1499      1511      1512      1499      1511      1513
      1499      1511      1514      1500      1499      1501      1500      1499      1511
      1501      1499      1511      1502      1505      1506      1503      1502      1504
      1503      1502      1505      1504      1502      1505      1505      1506      1507
      1505      1506      1508      1506      1508      1509      1506      1508      1510
      1506      1508      1558      1507      1506      1508      1508      1558      1559
      1508      1558      1560      1508      1558      1561      1509      1508      1510
      1509      1508      1558      1510      1508      1558      1511      1514      1515
      1511      1514      1516      1511      1514      1517      1512      1511      1513
      1512      1511      1514      1513      1511      1514      1514      1517      1518
      1514      1517      1519      1514      1517      1520      1515      1514      1516
      1515      1514      1517      1516      1514      1517      1517      1520      1521
      1517      1520      1522      1517      1520      1523      1518      1517      1519
      1518      1517      1520      1519      1517      1520      1520      1523      1524
      1520      1523      1525      1520      1523      1526      1521      1520      1522
      1521      1520      1523      1522      1520      1523      1523      1526      1527
      1523      1526      1528      1523      1526      1529      1524      1523      1525
      1524      1523      1526      1525      1523      1526      1526      1529      1530
      1526      1529      1531      1527      1526      1528      1527      1526      1529
      1528      1526      1529      1529      1531      1532      1529      1531      1533
      1530      1529      1531      1531      1533      1534      1531      1533      1535
      1531      1533      1536      1532      1531      1533      1533      1536      1537
      1533      1536      1538      1533      1536      1539      1534      1533      1535
      1534      1533      1536      1535      1533      1536      1536      1539      1540
      1536      1539      1541      1536      1539      1542      1537      1536      1538
      1537      1536      1539      1538      1536      1539      1539      1542      1543
      1539      1542      1544      1539      1542      1545      1540      1539      1541
      1540      1539      1542      1541      1539      1542      1542      1545      1546
      1542      1545      1547      1542      1545      1548      1543      1542      1544
      1543      1542      1545      1544      1542      1545      1545      1548      1549
      1545      1548      1550      1545      1548      1551      1546      1545      1547
      1546      1545      1548      1547      1545      1548      1548      1551      1552
      1548      1551      1553      1548      1551      1554      1549      1548      1550
      1549      1548      1551      1550      1548      1551      1551      1554      1555
      1551      1554      1556      1551      1554      1557      1552      1551      1553
      1552      1551      1554      1553      1551      1554      1555      1554      1556
      1555      1554      1557      1556      1554      1557      1558      1561      1562
      1558      1561      1563      1558      1561      1564      1559      1558      1560
      1559      1558      1561      1560      1558      1561      1561      1564      1565
      1561      1564      1566      1561      1564      1567      1562      1561      1563
      1562      1561      1564      1563      1561      1564      1564      1567      1568
      1564      1567      1569      1564      1567      1570      1565      1564      1566
      1565      1564      1567      1566      1564      1567      1567      1570      1571
      1567      1570      1572      1567      1570      1573      1568      1567      1569
      1568      1567      1570      1569      1567      1570      1570      1573      1574
      1570      1573      1575      1570      1573      1576      1571      1570      1572
      1571      1570      1573      1572      1570      1573      1573      1576      1577
      1573      1576      1578      1574      1573      1575      1574      1573      1576
      1575      1573      1576      1576      1578      1579      1576      1578      1580
      1577      1576      1578      1578      1580      1581      1578      1580      1582
      1578      1580      1583      1579      1578      1580      1580      1583      1584
      1580      1583      1585      1580      1583      1586      1581      1580      1582
      1581      1580      1583      1582      1580      1583      1583      1586      1587
      1583      1586      1588      1583      1586      1589      1584      1583      1585
      1584      1583      1586      1585      1583      1586      1586      1589      1590
      1586      1589      1591      1586      1589      1592      1587      1586      1588
      1587      1586      1589      1588      1586      1589      1589      1592      1593
      1589      1592      1594      1589      1592      1595      1590      1589      1591
      1590      1589      1592      1591      1589      1592      1592      1595      1596
      1592      1595      1597      1592      1595      1598      1593      1592      1594
      1593      1592      1595      1594      1592      1595      1595      1598      1599
      1595      1598      1600      1595      1598      1601      1596      1595      1597
      1596      1595      1598      1597      1595      1598      1598      1601      1602
      1598      1601      1603      1598      1601      1604      1599      1598      1600
      1599      1598      1601      1600      1598      1601      1602      1601      1603
      1602      1601      1604      1603      1601      1604      1605      1606      1607
      1605      1606      1608      1605      1606      1621      1605      1609      1610
      1605      1609      1611      1605      1609      1612      1605      1613      1614
      1605      1613      1615      1605      1613      1616      1605      1617      1618
      1605      1617      1619      1605      1617      1620      1606      1605      1609
      1606      1605      1613      1606      1605      1617      1606      1621      1622
      1606      1621      1623      1606      1621      1627      1607      1606      1608
      1607      1606      1621      1608      1606      1621      1609      1605      1613
      1609      1605      1617      1610      1609      1611      1610      1609      1612
      1611      1609      1612      1613      1605      1617      1614      1613      1615
      1614      1613      1616      1615      1613      1616      1618      1617      1619
      1618      1617      1620      1619      1617      1620      1621      1627      1624
      1622      1621      1623      1622      1621      1627      1623      1621      1627
      1624      1628      1629      1625      1624      1626      1625      1624      1627
      1625      1624      1628      1626      1624      1627      1626      1624      1628
      1627      1624      1628      1628      1629      1630      1628      1629      1631
      1628      1629      1632      1629      1632      1633      1629      1632      1634
      1629      1632      1640      1630      1629      1631      1630      1629      1632
      1631      1629      1632      1632      1634      1635      1632      1640      1641
      1632      1640      1642      1632      1640      1643      1633      1632      1634
      1633      1632      1640      1634      1632      1640      1634      1635      1636
      1634      1635      1637      1635      1637      1638      1635      1637      1639
      1635      1637      1649      1636      1635      1637      1637      1649      1650
      1637      1649      1651      1637      1649      1652      1638      1637      1639
      1638      1637      1649      1639      1637      1649      1640      1643      1644
      1641      1640      1642      1641      1640      1643      1642      1640      1643
      1643      1644      1645      1643      1644      1646      1644      1646      1647
      1644      1646      1648      1644      1646      1696      1645      1644      1646
      1646      1696      1697      1646      1696      1698      1646      1696      1699
      1647      1646      1648      1647      1646      1696      1648      1646      1696
      1649      1652      1653      1649      1652      1654      1649      1652      1655
      1650      1649      1651      1650      1649      1652      1651      1649      1652
      1652      1655      1656      1652      1655      1657      1652      1655      1658
      1653      1652      1654      1653      1652      1655      1654      1652      1655
      1655      1658      1659      1655      1658      1660      1655      1658      1661
      1656      1655      1657      1656      1655      1658      1657      1655      1658
      1658      1661      1662      1658      1661      1663      1658      1661      1664
      1659      1658      1660      1659      1658      1661      1660      1658      1661
      1661      1664      1665      1661      1664      1666      1661      1664      1667
      1662      1661      1663      1662      1661      1664      1663      1661      1664
      1664      1667      1668      1664      1667      1669      1665      1664      1666
      1665      1664      1667      1666      1664      1667      1667      1669      1670
      1667      1669      1671      1668      1667      1669      1669      1671      1672
      1669      1671      1673      1669      1671      1674      1670      1669      1671
      1671      1674      1675      1671      1674      1676      1671      1674      1677
      1672      1671      1673      1672      1671      1674      1673      1671      1674
      1674      1677      1678      1674      1677      1679      1674      1677      1680
      1675      1674      1676      1675      1674      1677      1676      1674      1677
      1677      1680      1681      1677      1680      1682      1677      1680      1683
      1678      1677      1679      1678      1677      1680      1679      1677      1680
      1680      1683      1684      1680      1683      1685      1680      1683      1686
      1681      1680      1682      1681      1680      1683      1682      1680      1683
      1683      1686      1687      1683      1686      1688      1683      1686      1689
      1684      1683      1685      1684      1683      1686      1685      1683      1686
      1686      1689      1690      1686      1689      1691      1686      1689      1692
      1687      1686      1688      1687      1686      1689      1688      1686      1689
      1689      1692      1693      1689      1692      1694      1689      1692      1695
      1690      1689      1691      1690      1689      1692      1691      1689      1692
      1693      1692      1694      1693      1692      1695      1694      1692      1695
      1696      1699      1700      1696      1699      1701      1696      1699      1702
      1697      1696      1698      1697      1696      1699      1698      1696      1699
      1699      1702      1703      1699      1702      1704      1699      1702      1705
      1700      1699      1701      1700      1699      1702      1701      1699      1702
      1702      1705      1706      1702      1705      1707      1702      1705      1708
      1703      1702      1704      1703      1702      1705      1704      1702      1705
      1705      1708      1709      1705      1708      1710      1705      1708      1711
      1706      1705      1707      1706      1705      1708      1707      1705      1708
      1708      1711      1712      1708      1711      1713      1708      1711      1714
      1709      1708      1710      1709      1708      1711      1710      1708      1711
      1711      1714      1715      1711      1714      1716      1712      1711      1713
      1712      1711      1714      1713      1711      1714      1714      1716      1717
      1714      1716      1718      1715      1714      1716      1716      1718      1719
      1716      1718      1720      1716      1718      1721      1717      1716      1718
      1718      1721      1722      1718      1721      1723      1718      1721      1724
      1719      1718      1720      1719      1718      1721      1720      1718      1721
      1721      1724      1725      1721      1724      1726      1721      1724      1727
      1722      1721      1723      1722      1721      1724      1723      1721      1724
      1724      1727      1728      1724      1727      1729      1724      1727      1730
      1725      1724      1726      1725      1724      1727      1726      1724      1727
      1727      1730      1731      1727      1730      1732      1727      1730      1733
      1728      1727      1729      1728      1727      1730      1729      1727      1730
      1730      1733      1734      1730      1733      1735      1730      1733      1736
      1731      1730      1732      1731      1730      1733      1732      1730      1733
      1733      1736      1737      1733      1736      1738      1733      1736      1739
      1734      1733      1735      1734      1733      1736      1735      1733      1736
      1736      1739      1740      1736      1739      1741      1736      1739      1742
      1737      1736      1738      1737      1736      1739      1738      1736      1739
      1740      1739      1741      1740      1739      1742      1741      1739      1742
      1743      1744      1745      1743      1744      1746      1743      1744      1759
      1743      1747      1748      1743      1747      1749      1743      1747      1750
      1743      1751      1752      1743      1751      1753      1743      1751      1754
      1743      1755      1756      1743      1755      1757      1743      1755      1758
      1744      1743      1747      1744      1743      1751      1744      1743      1755
      1744      1759      1760      1744      1759      1761      1744      1759      1765
      1745      1744      1746      1745      1744      1759      1746      1744      1759
      1747      1743      1751      1747      1743      1755      1748      1747      1749
      1748      1747      1750      1749      1747      1750      1751      1743      1755
      1752      1751      1753      1752      1751      1754      1753      1751      1754
      1756      1755      1757      1756      1755      1758      1757      1755      1758
      1759      1765      1762      1760      1759      1761      1760      1759      1765
      1761      1759      1765      1762      1766      1767      1763      1762      1764
      1763      1762      1765      1763      1762      1766      1764      1762      1765
      1764      1762      1766      1765      1762      1766      1766      1767      1768
      1766      1767      1769      1766      1767      1770      1767      1770      1771
      1767      1770      1772      1767      1770      1778      1768      1767      1769
      1768      1767      1770      1769      1767      1770      1770      1772      1773
      1770      1778      1779      1770      1778      1780      1770      1778      1781
      1771      1770      1772      1771      1770      1778      1772      1770      1778
      1772      1773      1774      1772      1773      1775      1773      1775      1776
      1773      1775      1777      1773      1775      1787      1774      1773      1775
      1775      1787      1788      1775      1787      1789      1775      1787      1790
      1776      1775      1777      1776      1775      1787      1777      1775      1787
      1778      1781      1782      1779      1778      1780      1779      1778      1781
      1780      1778      1781      1781      1782      1783      1781      1782      1784
      1782      1784      1785      1782      1784      1786      1782      1784      1834
      1783      1782      1784      1784      1834      1835      1784      1834      1836
      1784      1834      1837      1785      1784      1786      1785      1784      1834
      1786      1784      1834      1787      1790      1791      1787      1790      1792
      1787      1790      1793      1788      1787      1789      1788      1787      1790
      1789      1787      1790      1790      1793      1794      1790      1793      1795
      1790      1793      1796      1791      1790      1792      1791      1790      1793
      1792      1790      1793      1793      1796      1797      1793      1796      1798
      1793      1796      1799      1794      1793      1795      1794      1793      1796
      1795      1793      1796      1796      1799      1800      1796      1799      1801
      1796      1799      1802      1797      1796      1798      1797      1796      1799
      1798      1796      1799      1799      1802      1803      1799      1802      1804
      1799      1802      1805      1800      1799      1801      1800      1799      1802
      1801      1799      1802      1802      1805      1806      1802      1805      1807
      1803      1802      1804      1803      1802      1805      1804      1802      1805
      1805      1807      1808      1805      1807      1809      1806      1805      1807
      1807      1809      1810      1807      1809      1811      1807      1809      1812
      1808      1807      1809      1809      1812      1813      1809      1812      1814
      1809      1812      1815      1810      1809      1811      1810      1809      1812
      1811      1809      1812      1812      1815      1816      1812      1815      1817
      1812      1815      1818      1813      1812      1814      1813      1812      1815
      1814      1812      1815      1815      1818      1819      1815      1818      1820
      1815      1818      1821      1816      1815      1817      1816      1815      1818
      1817      1815      1818      1818      1821      1822      1818      1821      1823
      1818      1821      1824      1819      1818      1820      1819      1818      1821
      1820      1818      1821      1821      1824      1825      1821      1824      1826
      1821      1824      1827      1822      1821      1823      1822      1821      1824
      1823      1821      1824      1824      1827      1828      1824      1827      1829
      1824      1827      1830      1825      1824      1826      1825      1824      1827
      1826      1824      1827      1827      1830      1831      1827      1830      1832
      1827      1830      1833      1828      1827      1829      1828      1827      1830
      1829      1827      1830      1831      1830      1832      1831      1830      1833
      1832      1830      1833      1834      1837      1838      1834      1837      1839
      1834      1837      1840      1835      1834      1836      1835      1834      1837
      1836      1834      1837      1837      1840      1841      1837      1840      1842
      1837      1840      1843      1838      1837      1839      1838      1837      1840
      1839      1837      1840      1840      1843      1844      1840      1843      1845
      1840      1843      1846      1841      1840      1842      1841      1840      1843
      1842      1840      1843      1843      1846      1847      1843      1846      1848
      1843      1846      1849      1844      1843      1845      1844      1843      1846
      1845      1843      1846      1846      1849      1850      1846      1849      1851
      1846      1849      1852      1847      1846      1848      1847      1846      1849
      1848      1846      1849      1849      1852      1853      1849      1852      1854
      1850      1849      1851      1850      1849      1852      1851      1849      1852
      1852      1854      1855      1852      1854      1856      1853      1852      1854
      1854      1856      1857      1854      1856      1858      1854      1856      1859
      1855      1854      1856      1856      1859      1860      1856      1859      1861
      1856      1859      1862      1857      1856      1858      1857      1856      1859
      1858      1856      1859      1859      1862      1863      1859      1862      1864
      1859      1862      1865      1860      1859      1861      1860      1859      1862
      1861      1859      1862      1862      1865      1866      1862      1865      1867
      1862      1865      1868      1863      1862      1864      1863      1862      1865
      1864      1862      1865      1865      1868      1869      1865      1868      1870
      1865      1868      1871      1866      1865      1867      1866      1865      1868
      1867      1865      1868      1868      1871      1872      1868      1871      1873
      1868      1871      1874      1869      1868      1870      1869      1868      1871
      1870      1868      1871      1871      1874      1875      1871      1874      1876
      1871      1874      1877      1872      1871      1873      1872      1871      1874
      1873      1871      1874      1874      1877      1878      1874      1877      1879
      1874      1877      1880      1875      1874      1876      1875      1874      1877
      1876      1874      1877      1878      1877      1879      1878      1877      1880
      1879      1877      1880      1881      1882      1883      1881      1882      1884
      1881      1882      1897      1881      1885      1886      1881      1885      1887
      1881      1885      1888      1881      1889      1890      1881      1889      1891
      1881      1889      1892      1881      1893      1894      1881      1893      1895
      1881      1893      1896      1882      1881      1885      1882      1881      1889
      1882      1881      1893      1882      1897      1898      1882      1897      1899
      1882      1897      1903      1883      1882      1884      1883      1882      1897
      1884      1882      1897      1885      1881      1889      1885      1881      1893
      1886      1885      1887      1886      1885      1888      1887      1885      1888
      1889      1881      1893      1890      1889      1891      1890      1889      1892
      1891      1889      1892      1894      1893      1895      1894      1893      1896
      1895      1893      1896      1897      1903      1900      1898      1897      1899
      1898      1897      1903      1899      1897      1903      1900      1904      1905
      1901      1900      1902      1901      1900      1903      1901      1900      1904
      1902      1900      1903      1902      1900      1904      1903      1900      1904
      1904      1905      1906      1904      1905      1907      1904      1905      1908
      1905      1908      1909      1905      1908      1910      1905      1908      1916
      1906      1905      1907      1906      1905      1908      1907      1905      1908
      1908      1910      1911      1908      1916      1917      1908      1916      1918
      1908      1916      1919      1909      1908      1910      1909      1908      1916
      1910      1908      1916      1910      1911      1912      1910      1911      1913
      1911      1913      1914      1911      1913      1915      1911      1913      1925
      1912      1911      1913      1913      1925      1926      1913      1925      1927
      1913      1925      1928      1914      1913      1915      1914      1913      1925
      1915      1913      1925      1916      1919      1920      1917      1916      1918
      1917      1916      1919      1918      1916      1919      1919      1920      1921
      1919      1920      1922      1920      1922      1923      1920      1922      1924
      1920      1922      1972      1921      1920      1922      1922      1972      1973
      1922      1972      1974      1922      1972      1975      1923      1922      1924
      1923      1922      1972      1924      1922      1972      1925      1928      1929
      1925      1928      1930      1925      1928      1931      1926      1925      1927
      1926      1925      1928      1927      1925      1928      1928      1931      1932
      1928      1931      1933      1928      1931      1934      1929      1928      1930
      1929      1928      1931      1930      1928      1931      1931      1934      1935
      1931      1934      1936      1931      1934      1937      1932      1931      1933
      1932      1931      1934      1933      1931      1934      1934      1937      1938
      1934      1937      1939      1934      1937      1940      1935      1934      1936
      1935      1934      1937      1936      1934      1937      1937      1940      1941
      1937      1940      1942      1937      1940      1943      1938      1937      1939
      1938      1937      1940      1939      1937      1940      1940      1943      1944
      1940      1943      1945      1941      1940      1942      1941      1940      1943
      1942      1940      1943      1943      1945      1946      1943      1945      1947
      1944      1943      1945      1945      1947      1948      1945      1947      1949
      1945      1947      1950      1946      1945      1947      1947      1950      1951
      1947      1950      1952      1947      1950      1953      1948      1947      1949
      1948      1947      1950      1949      1947      1950      1950      1953      1954
      1950      1953      1955      1950      1953      1956      1951      1950      1952
      1951      1950      1953      1952      1950      1953      1953      1956      1957
      1953      1956      1958      1953      1956      1959      1954      1953      1955
      1954      1953      1956      1955      1953      1956      1956      1959      1960
      1956      1959      1961      1956      1959      1962      1957      1956      1958
      1957      1956      1959      1958      1956      1959      1959      1962      1963
      1959      1962      1964      1959      1962      1965      1960      1959      1961
      1960      1959      1962      1961      1959      1962      1962      1965      1966
      1962      1965      1967      1962      1965      1968      1963      1962      1964
      1963      1962      1965      1964      1962      1965      1965      1968      1969
      1965      1968      1970      1965      1968      1971      1966      1965      1967
      1966      1965      1968      1967      1965      1968      1969      1968      1970
      1969      1968      1971      1970      1968      1971      1972      1975      1976
      1972      1975      1977      1972      1975      1978      1973      1972      1974
      1973      1972      1975      1974      1972      1975      1975      1978      1979
      1975      1978      1980      1975      1978      1981      1976      1975      1977
      1976      1975      1978      1977      1975      1978      1978      1981      1982
      1978      1981      1983      1978      1981      1984      1979      1978      1980
      1979      1978      1981      1980      1978      1981      1981      1984      1985
      1981      1984      1986      1981      1984      1987      1982      1981      1983
      1982      1981      1984      1983      1981      1984      1984      1987      1988
      1984      1987      1989      1984      1987      1990      1985      1984      1986
      1985      1984      1987      1986      1984      1987      1987      1990      1991
      1987      1990      1992      1988      1987      1989      1988      1987      1990
      1989      1987      1990      1990      1992      1993      1990      1992      1994
      1991      1990      1992      1992      1994      1995      1992      1994      1996
      1992      1994      1997      1993      1992      1994      1994      1997      1998
      1994      1997      1999      1994      1997      2000      1995      1994      1996
      1995      1994      1997      1996      1994      1997      1997      2000      2001
      1997      2000      2002      1997      2000      2003      1998      1997      1999
      1998      1997      2000      1999      1997      2000      2000      2003      2004
      2000      2003      2005      2000      2003      2006      2001      2000      2002
      2001      2000      2003      2002      2000      2003      2003      2006      2007
      2003      2006      2008      2003      2006      2009      2004      2003      2005
      2004      2003      2006      2005      2003      2006      2006      2009      2010
      2006      2009      2011      2006      2009      2012      2007      2006      2008
      2007      2006      2009      2008      2006      2009      2009      2012      2013
      2009      2012      2014      2009      2012      2015      2010      2009      2011
      2010      2009      2012      2011      2009      2012      2012      2015      2016
      2012      2015      2017      2012      2015      2018      2013      2012      2014
      2013      2012      2015      2014      2012      2015      2016      2015      2017
      2016      2015      2018      2017      2015      2018      2019      2020      2021
      2019      2020      2022      2019      2020      2035      2019      2023      2024
      2019      2023      2025      2019      2023      2026      2019      2027      2028
      2019      2027      2029      2019      2027      2030      2019      2031      2032
      2019      2031      2033      2019      2031      2034      2020      2019      2023
      2020      2019      2027      2020      2019      2031      2020      2035      2036
      2020      2035      2037      2020      2035      2041      2021      2020      2022
      2021      2020      2035      2022      2020      2035      2023      2019      2027
      2023      2019      2031      2024      2023      2025      2024      2023      2026
      2025      2023      2026      2027      2019      2031      2028      2027      2029
      2028      2027      2030      2029      2027      2030      2032      2031      2033
      2032      2031      2034      2033      2031      2034      2035      2041      2038
      2036      2035      2037      2036      2035      2041      2037      2035      2041
      2038      2042      2043      2039      2038      2040      2039      2038      2041
      2039      2038      2042      2040      2038      2041      2040      2038      2042
      2041      2038      2042      2042      2043      2044      2042      2043      2045
      2042      2043      2046      2043      2046      2047      2043      2046      2048
      2043      2046      2054      2044      2043      2045      2044      2043      2046
      2045      2043      2046      2046      2048      2049      2046      2054      2055
      2046      2054      2056      2046      2054      2057      2047      2046      2048
      2047      2046      2054      2048      2046      2054      2048      2049      2050
      2048      2049      2051      2049      2051      2052      2049      2051      2053
      2049      2051      2063      2050      2049      2051      2051      2063      2064
      2051      2063      2065      2051      2063      2066      2052      2051      2053
      2052      2051      2063      2053      2051      2063      2054      2057      2058
      2055      2054      2056      2055      2054      2057      2056      2054      2057
      2057      2058      2059      2057      2058      2060      2058      2060      2061
      2058      2060      2062      2058      2060      2110      2059      2058      2060
      2060      2110      2111      2060      2110      2112      2060      2110      2113
      2061      2060      2062      2061      2060      2110      2062      2060      2110
      2063      2066      2067      2063      2066      2068      2063      2066      2069
      2064      2063      2065      2064      2063      2066      2065      2063      2066
      2066      2069      2070      2066      2069      2071      2066      2069      2072
      2067      2066      2068      2067      2066      2069      2068      2066      2069
      2069      2072      2073      2069      2072      2074      2069      2072      2075
      2070      2069      2071      2070      2069      2072      2071      2069      2072
      2072      2075      2076      2072      2075      2077      2072      2075      2078
      2073      2072      2074      2073      2072      2075      2074      2072      2075
      2075      2078      2079      2075      2078      2080      2075      2078      2081
      2076      2075      2077      2076      2075      2078      2077      2075      2078
      2078      2081      2082      2078      2081      2083      2079      2078      2080
      2079      2078      2081      2080      2078      2081      2081      2083      2084
      2081      2083      2085      2082      2081      2083      2083      2085      2086
      2083      2085      2087      2083      2085      2088      2084      2083      2085
      2085      2088      2089      2085      2088      2090      2085      2088      2091
      2086      2085      2087      2086      2085      2088      2087      2085      2088
      2088      2091      2092      2088      2091      2093      2088      2091      2094
      2089      2088      2090      2089      2088      2091      2090      2088      2091
      2091      2094      2095      2091      2094      2096      2091      2094      2097
      2092      2091      2093      2092      2091      2094      2093      2091      2094
      2094      2097      2098      2094      2097      2099      2094      2097      2100
      2095      2094      2096      2095      2094      2097      2096      2094      2097
      2097      2100      2101      2097      2100      2102      2097      2100      2103
      2098      2097      2099      2098      2097      2100      2099      2097      2100
      2100      2103      2104      2100      2103      2105      2100      2103      2106
      2101      2100      2102      2101      2100      2103      2102      2100      2103
      2103      2106      2107      2103      2106      2108      2103      2106      2109
      2104      2103      2105      2104      2103      2106      2105      2103      2106
      2107      2106      2108      2107      2106      2109      2108      2106      2109
      2110      2113      2114      2110      2113      2115      2110      2113      2116
      2111      2110      2112      2111      2110      2113      2112      2110      2113
      2113      2116      2117      2113      2116      2118      2113      2116      2119
      2114      2113      2115      2114      2113      2116      2115      2113      2116
      2116      2119      2120      2116      2119      2121      2116      2119      2122
      2117      2116      2118      2117      2116      2119      2118      2116      2119
      2119      2122      2123      2119      2122      2124      2119      2122      2125
      2120      2119      2121      2120      2119      2122      2121      2119      2122
      2122      2125      2126      2122      2125      2127      2122      2125      2128
      2123      2122      2124      2123      2122      2125      2124      2122      2125
      2125      2128      2129      2125      2128      2130      2126      2125      2127
      2126      2125      2128      2127      2125      2128      2128      2130      2131
      2128      2130      2132      2129      2128      2130      2130      2132      2133
      2130      2132      2134      2130      2132      2135      2131      2130      2132
      2132      2135      2136      2132      2135      2137      2132      2135      2138
      2133      2132      2134      2133      2132      2135      2134      2132      2135
      2135      2138      2139      2135      2138      2140      2135      2138      2141
      2136      2135      2137      2136      2135      2138      2137      2135      2138
      2138      2141      2142      2138      2141      2143      2138      2141      2144
      2139      2138      2140      2139      2138      2141      2140      2138      2141
      2141      2144      2145      2141      2144      2146      2141      2144      2147
      2142      2141      2143      2142      2141      2144      2143      2141      2144
      2144      2147      2148      2144      2147      2149      2144      2147      2150
      2145      2144      2146      2145      2144      2147      2146      2144      2147
      2147      2150      2151      2147      2150      2152      2147      2150      2153
      2148      2147      2149      2148      2147      2150      2149      2147      2150
      2150      2153      2154      2150      2153      2155      2150      2153      2156
      2151      2150      2152      2151      2150      2153      2152      2150      2153
      2154      2153      2155      2154      2153      2156      2155      2153      2156
      2157      2158      2159      2157      2158      2160      2157      2158      2173
      2157      2161      2162      2157      2161      2163      2157      2161      2164
      2157      2165      2166      2157      2165      2167      2157      2165      2168
      2157      2169      2170      2157      2169      2171      2157      2169      2172
      2158      2157      2161      2158      2157      2165      2158      2157      2169
      2158      2173      2174      2158      2173      2175      2158      2173      2179
      2159      2158      2160      2159      2158      2173      2160      2158      2173
      2161      2157      2165      2161      2157      2169      2162      2161      2163
      2162      2161      2164      2163      2161      2164      2165      2157      2169
      2166      2165      2167      2166      2165      2168      2167      2165      2168
      2170      2169      2171      2170      2169      2172      2171      2169      2172
      2173      2179      2176      2174      2173      2175      2174      2173      2179
      2175      2173      2179      2176      2180      2181      2177      2176      2178
      2177      2176      2179      2177      2176      2180      2178      2176      2179
      2178      2176      2180      2179      2176      2180      2180      2181      2182
      2180      2181      2183      2180      2181      2184      2181      2184      2185
      2181      2184      2186      2181      2184      2192      2182      2181      2183
      2182      2181      2184      2183      2181      2184      2184      2186      2187
      2184      2192      2193      2184      2192      2194      2184      2192      2195
      2185      2184      2186      2185      2184      2192      2186      2184      2192
      2186      2187      2188      2186      2187      2189      2187      2189      2190
      2187      2189      2191      2187      2189      2201      2188      2187      2189
      2189      2201      2202      2189      2201      2203      2189      2201      2204
      2190      2189      2191      2190      2189      2201      2191      2189      2201
      2192      2195      2196      2193      2192      2194      2193      2192      2195
      2194      2192      2195      2195      2196      2197      2195      2196      2198
      2196      2198      2199      2196      2198      2200      2196      2198      2248
      2197      2196      2198      2198      2248      2249      2198      2248      2250
      2198      2248      2251      2199      2198      2200      2199      2198      2248
      2200      2198      2248      2201      2204      2205      2201      2204      2206
      2201      2204      2207      2202      2201      2203      2202      2201      2204
      2203      2201      2204      2204      2207      2208      2204      2207      2209
      2204      2207      2210      2205      2204      2206      2205      2204      2207
      2206      2204      2207      2207      2210      2211      2207      2210      2212
      2207      2210      2213      2208      2207      2209      2208      2207      2210
      2209      2207      2210      2210      2213      2214      2210      2213      2215
      2210      2213      2216      2211      2210      2212      2211      2210      2213
      2212      2210      2213      2213      2216      2217      2213      2216      2218
      2213      2216      2219      2214      2213      2215      2214      2213      2216
      2215      2213      2216      2216      2219      2220      2216      2219      2221
      2217      2216      2218      2217      2216      2219      2218      2216      2219
      2219      2221      2222      2219      2221      2223      2220      2219      2221
      2221      2223      2224      2221      2223      2225      2221      2223      2226
      2222      2221      2223      2223      2226      2227      2223      2226      2228
      2223      2226      2229      2224      2223      2225      2224      2223      2226
      2225      2223      2226      2226      2229      2230      2226      2229      2231
      2226      2229      2232      2227      2226      2228      2227      2226      2229
      2228      2226      2229      2229      2232      2233      2229      2232      2234
      2229      2232      2235      2230      2229      2231      2230      2229      2232
      2231      2229      2232      2232      2235      2236      2232      2235      2237
      2232      2235      2238      2233      2232      2234      2233      2232      2235
      2234      2232      2235      2235      2238      2239      2235      2238      2240
      2235      2238      2241      2236      2235      2237      2236      2235      2238
      2237      2235      2238      2238      2241      2242      2238      2241      2243
      2238      2241      2244      2239      2238      2240      2239      2238      2241
      2240      2238      2241      2241      2244      2245      2241      2244      2246
      2241      2244      2247      2242      2241      2243      2242      2241      2244
      2243      2241      2244      2245      2244      2246      2245      2244      2247
      2246      2244      2247      2248      2251      2252      2248      2251      2253
      2248      2251      2254      2249      2248      2250      2249      2248      2251
      2250      2248      2251      2251      2254      2255      2251      2254      2256
      2251      2254      2257      2252      2251      2253      2252      2251      2254
      2253      2251      2254      2254      2257      2258      2254      2257      2259
      2254      2257      2260      2255      2254      2256      2255      2254      2257
      2256      2254      2257      2257      2260      2261      2257      2260      2262
      2257      2260      2263      2258      2257      2259      2258      2257      2260
      2259      2257      2260      2260      2263      2264      2260      2263      2265
      2260      2263      2266      2261      2260      2262      2261      2260      2263
      2262      2260      2263      2263      2266      2267      2263      2266      2268
      2264      2263      2265      2264      2263      2266      2265      2263      2266
      2266      2268      2269      2266      2268      2270      2267      2266      2268
      2268      2270      2271      2268      2270      2272      2268      2270      2273
      2269      2268      2270      2270      2273      2274      2270      2273      2275
      2270      2273      2276      2271      2270      2272      2271      2270      2273
      2272      2270      2273      2273      2276      2277      2273      2276      2278
      2273      2276      2279      2274      2273      2275      2274      2273      2276
      2275      2273      2276      2276      2279      2280      2276      2279      2281
      2276      2279      2282      2277      2276      2278      2277      2276      2279
      2278      2276      2279      2279      2282      2283      2279      2282      2284
      2279      2282      2285      2280      2279      2281      2280      2279      2282
      2281      2279      2282      2282      2285      2286      2282      2285      2287
      2282      2285      2288      2283      2282      2284      2283      2282      2285
      2284      2282      2285      2285      2288      2289      2285      2288      2290
      2285      2288      2291      2286      2285      2287      2286      2285      2288
      2287      2285      2288      2288      2291      2292      2288      2291      2293
      2288      2291      2294      2289      2288      2290      2289      2288      2291
      2290      2288      2291      2292      2291      2293      2292      2291      2294
      2293      2291      2294      2295      2296      2297      2295      2296      2298
      2295      2296      2311      2295      2299      2300      2295      2299      2301
      2295      2299      2302      2295      2303      2304      2295      2303      2305
      2295      2303      2306      2295      2307      2308      2295      2307      2309
      2295      2307      2310      2296      2295      2299      2296      2295      2303
      2296      2295      2307      2296      2311      2312      2296      2311      2313
      2296      2311      2317      2297      2296      2298      2297      2296      2311
      2298      2296      2311      2299      2295      2303      2299      2295      2307
      2300      2299      2301      2300      2299      2302      2301      2299      2302
      2303      2295      2307      2304      2303      2305      2304      2303      2306
      2305      2303      2306      2308      2307      2309      2308      2307      2310
      2309      2307      2310      2311      2317      2314      2312      2311      2313
      2312      2311      2317      2313      2311      2317      2314      2318      2319
      2315      2314      2316      2315      2314      2317      2315      2314      2318
      2316      2314      2317      2316      2314      2318      2317      2314      2318
      2318      2319      2320      2318      2319      2321      2318      2319      2322
      2319      2322      2323      2319      2322      2324      2319      2322      2330
      2320      2319      2321      2320      2319      2322      2321      2319      2322
      2322      2324      2325      2322      2330      2331      2322      2330      2332
      2322      2330      2333      2323      2322      2324      2323      2322      2330
      2324      2322      2330      2324      2325      2326      2324      2325      2327
      2325      2327      2328      2325      2327      2329      2325      2327      2339
      2326      2325      2327      2327      2339      2340      2327      2339      2341
      2327      2339      2342      2328      2327      2329      2328      2327      2339
      2329      2327      2339      2330      2333      2334      2331      2330      2332
      2331      2330      2333      2332      2330      2333      2333      2334      2335
      2333      2334      2336      2334      2336      2337      2334      2336      2338
      2334      2336      2386      2335      2334      2336      2336      2386      2387
      2336      2386      2388      2336      2386      2389      2337      2336      2338
      2337      2336      2386      2338      2336      2386      2339      2342      2343
      2339      2342      2344      2339      2342      2345      2340      2339      2341
      2340      2339      2342      2341      2339      2342      2342      2345      2346
      2342      2345      2347      2342      2345      2348      2343      2342      2344
      2343      2342      2345      2344      2342      2345      2345      2348      2349
      2345      2348      2350      2345      2348      2351      2346      2345      2347
      2346      2345      2348      2347      2345      2348      2348      2351      2352
      2348      2351      2353      2348      2351      2354      2349      2348      2350
      2349      2348      2351      2350      2348      2351      2351      2354      2355
      2351      2354      2356      2351      2354      2357      2352      2351      2353
      2352      2351      2354      2353      2351      2354      2354      2357      2358
      2354      2357      2359      2355      2354      2356      2355      2354      2357
      2356      2354      2357      2357      2359      2360      2357      2359      2361
      2358      2357      2359      2359      2361      2362      2359      2361      2363
      2359      2361      2364      2360      2359      2361      2361      2364      2365
      2361      2364      2366      2361      2364      2367      2362      2361      2363
      2362      2361      2364      2363      2361      2364      2364      2367      2368
      2364      2367      2369      2364      2367      2370      2365      2364      2366
      2365      2364      2367      2366      2364      2367      2367      2370      2371
      2367      2370      2372      2367      2370      2373      2368      2367      2369
      2368      2367      2370      2369      2367      2370      2370      2373      2374
      2370      2373      2375      2370      2373      2376      2371      2370      2372
      2371      2370      2373      2372      2370      2373      2373      2376      2377
      2373      2376      2378      2373      2376      2379      2374      2373      2375
      2374      2373      2376      2375      2373      2376      2376      2379      2380
      2376      2379      2381      2376      2379      2382      2377      2376      2378
      2377      2376      2379      2378      2376      2379      2379      2382      2383
      2379      2382      2384      2379      2382      2385      2380      2379      2381
      2380      2379      2382      2381      2379      2382      2383      2382      2384
      2383      2382      2385      2384      2382      2385      2386      2389      2390
      2386      2389      2391      2386      2389      2392      2387      2386      2388
      2387      2386      2389      2388      2386      2389      2389      2392      2393
      2389      2392      2394      2389      2392      2395      2390      2389      2391
      2390      2389      2392      2391      2389      2392      2392      2395      2396
      2392      2395      2397      2392      2395      2398      2393      2392      2394
      2393      2392      2395      2394      2392      2395      2395      2398      2399
      2395      2398      2400      2395      2398      2401      2396      2395      2397
      2396      2395      2398      2397      2395      2398      2398      2401      2402
      2398      2401      2403      2398      2401      2404      2399      2398      2400
      2399      2398      2401      2400      2398      2401      2401      2404      2405
      2401      2404      2406      2402      2401      2403      2402      2401      2404
      2403      2401      2404      2404      2406      2407      2404      2406      2408
      2405      2404      2406      2406      2408      2409      2406      2408      2410
      2406      2408      2411      2407      2406      2408      2408      2411      2412
      2408      2411      2413      2408      2411      2414      2409      2408      2410
      2409      2408      2411      2410      2408      2411      2411      2414      2415
      2411      2414      2416      2411      2414      2417      2412      2411      2413
      2412      2411      2414      2413      2411      2414      2414      2417      2418
      2414      2417      2419      2414      2417      2420      2415      2414      2416
      2415      2414      2417      2416      2414      2417      2417      2420      2421
      2417      2420      2422      2417      2420      2423      2418      2417      2419
      2418      2417      2420      2419      2417      2420      2420      2423      2424
      2420      2423      2425      2420      2423      2426      2421      2420      2422
      2421      2420      2423      2422      2420      2423      2423      2426      2427
      2423      2426      2428      2423      2426      2429      2424      2423      2425
      2424      2423      2426      2425      2423      2426      2426      2429      2430
      2426      2429      2431      2426      2429      2432      2427      2426      2428
      2427      2426      2429      2428      2426      2429      2430      2429      2431
      2430      2429      2432      2431      2429      2432      2433      2434      2435
      2433      2434      2436      2433      2434      2449      2433      2437      2438
      2433      2437      2439      2433      2437      2440      2433      2441      2442
      2433      2441      2443      2433      2441      2444      2433      2445      2446
      2433      2445      2447      2433      2445      2448      2434      2433      2437
      2434      2433      2441      2434      2433      2445      2434      2449      2450
      2434      2449      2451      2434      2449      2455      2435      2434      2436
      2435      2434      2449      2436      2434      2449      2437      2433      2441
      2437      2433      2445      2438      2437      2439      2438      2437      2440
      2439      2437      2440      2441      2433      2445      2442      2441      2443
      2442      2441      2444      2443      2441      2444      2446      2445      2447
      2446      2445      2448      2447      2445      2448      2449      2455      2452
      2450      2449      2451      2450      2449      2455      2451      2449      2455
      2452      2456      2457      2453      2452      2454      2453      2452      2455
      2453      2452      2456      2454      2452      2455      2454      2452      2456
      2455      2452      2456      2456      2457      2458      2456      2457      2459
      2456      2457      2460      2457      2460      2461      2457      2460      2462
      2457      2460      2468      2458      2457      2459      2458      2457      2460
      2459      2457      2460      2460      2462      2463      2460      2468      2469
      2460      2468      2470      2460      2468      2471      2461      2460      2462
      2461      2460      2468      2462      2460      2468      2462      2463      2464
      2462      2463      2465      2463      2465      2466      2463      2465      2467
      2463      2465      2477      2464      2463      2465      2465      2477      2478
      2465      2477      2479      2465      2477      2480      2466      2465      2467
      2466      2465      2477      2467      2465      2477      2468      2471      2472
      2469      2468      2470      2469      2468      2471      2470      2468      2471
      2471      2472      2473      2471      2472      2474      2472      2474      2475
      2472      2474      2476      2472      2474      2524      2473      2472      2474
      2474      2524      2525      2474      2524      2526      2474      2524      2527
      2475      2474      2476      2475      2474      2524      2476      2474      2524
      2477      2480      2481      2477      2480      2482      2477      2480      2483
      2478      2477      2479      2478      2477      2480      2479      2477      2480
      2480      2483      2484      2480      2483      2485      2480      2483      2486
      2481      2480      2482      2481      2480      2483      2482      2480      2483
      2483      2486      2487      2483      2486      2488      2483      2486      2489
      2484      2483      2485      2484      2483      2486      2485      2483      2486
      2486      2489      2490      2486      2489      2491      2486      2489      2492
      2487      2486      2488      2487      2486      2489      2488      2486      2489
      2489      2492      2493      2489      2492      2494      2489      2492      2495
      2490      2489      2491      2490      2489      2492      2491      2489      2492
      2492      2495      2496      2492      2495      2497      2493      2492      2494
      2493      2492      2495      2494      2492      2495      2495      2497      2498
      2495      2497      2499      2496      2495      2497      2497      2499      2500
      2497      2499      2501      2497      2499      2502      2498      2497      2499
      2499      2502      2503      2499      2502      2504      2499      2502      2505
      2500      2499      2501      2500      2499      2502      2501      2499      2502
      2502      2505      2506      2502      2505      2507      2502      2505      2508
      2503      2502      2504      2503      2502      2505      2504      2502      2505
      2505      2508      2509      2505      2508      2510      2505      2508      2511
      2506      2505      2507      2506      2505      2508      2507      2505      2508
      2508      2511      2512      2508      2511      2513      2508      2511      2514
      2509      2508      2510      2509      2508      2511      2510      2508      2511
      2511      2514      2515      2511      2514      2516      2511      2514      2517
      2512      2511      2513      2512      2511      2514      2513      2511      2514
      2514      2517      2518      2514      2517      2519      2514      2517      2520
      2515      2514      2516      2515      2514      2517      2516      2514      2517
      2517      2520      2521      2517      2520      2522      2517      2520      2523
      2518      2517      2519      2518      2517      2520      2519      2517      2520
      2521      2520      2522      2521      2520      2523      2522      2520      2523
      2524      2527      2528      2524      2527      2529      2524      2527      2530
      2525      2524      2526      2525      2524      2527      2526      2524      2527
      2527      2530      2531      2527      2530      2532      2527      2530      2533
      2528      2527      2529      2528      2527      2530      2529      2527      2530
      2530      2533      2534      2530      2533      2535      2530      2533      2536
      2531      2530      2532      2531      2530      2533      2532      2530      2533
      2533      2536      2537      2533      2536      2538      2533      2536      2539
      2534      2533      2535      2534      2533      2536      2535      2533      2536
      2536      2539      2540      2536      2539      2541      2536      2539      2542
      2537      2536      2538      2537      2536      2539      2538      2536      2539
      2539      2542      2543      2539      2542      2544      2540      2539      2541
      2540      2539      2542      2541      2539      2542      2542      2544      2545
      2542      2544      2546      2543      2542      2544      2544      2546      2547
      2544      2546      2548      2544      2546      2549      2545      2544      2546
      2546      2549      2550      2546      2549      2551      2546      2549      2552
      2547      2546      2548      2547      2546      2549      2548      2546      2549
      2549      2552      2553      2549      2552      2554      2549      2552      2555
      2550      2549      2551      2550      2549      2552      2551      2549      2552
      2552      2555      2556      2552      2555      2557      2552      2555      2558
      2553      2552      2554      2553      2552      2555      2554      2552      2555
      2555      2558      2559      2555      2558      2560      2555      2558      2561
      2556      2555      2557      2556      2555      2558      2557      2555      2558
      2558      2561      2562      2558      2561      2563      2558      2561      2564
      2559      2558      2560      2559      2558      2561      2560      2558      2561
      2561      2564      2565      2561      2564      2566      2561      2564      2567
      2562      2561      2563      2562      2561      2564      2563      2561      2564
      2564      2567      2568      2564      2567      2569      2564      2567      2570
      2565      2564      2566      2565      2564      2567      2566      2564      2567
      2568      2567      2569      2568      2567      2570      2569      2567      2570
      2571      2572      2573      2571      2572      2574      2571      2572      2587
      2571      2575      2576      2571      2575      2577      2571      2575      2578
      2571      2579      2580      2571      2579      2581      2571      2579      2582
      2571      2583      2584      2571      2583      2585      2571      2583      2586
      2572      2571      2575      2572      2571      2579      2572      2571      2583
      2572      2587      2588      2572      2587      2589      2572      2587      2593
      2573      2572      2574      2573      2572      2587      2574      2572      2587
      2575      2571      2579      2575      2571      2583      2576      2575      2577
      2576      2575      2578      2577      2575      2578      2579      2571      2583
      2580      2579      2581      2580      2579      2582      2581      2579      2582
      2584      2583      2585      2584      2583      2586      2585      2583      2586
      2587      2593      2590      2588      2587      2589      2588      2587      2593
      2589      2587      2593      2590      2594      2595      2591      2590      2592
      2591      2590      2593      2591      2590      2594      2592      2590      2593
      2592      2590      2594      2593      2590      2594      2594      2595      2596
      2594      2595      2597      2594      2595      2598      2595      2598      2599
      2595      2598      2600      2595      2598      2606      2596      2595      2597
      2596      2595      2598      2597      2595      2598      2598      2600      2601
      2598      2606      2607      2598      2606      2608      2598      2606      2609
      2599      2598      2600      2599      2598      2606      2600      2598      2606
      2600      2601      2602      2600      2601      2603      2601      2603      2604
      2601      2603      2605      2601      2603      2615      2602      2601      2603
      2603      2615      2616      2603      2615      2617      2603      2615      2618
      2604      2603      2605      2604      2603      2615      2605      2603      2615
      2606      2609      2610      2607      2606      2608      2607      2606      2609
      2608      2606      2609      2609      2610      2611      2609      2610      2612
      2610      2612      2613      2610      2612      2614      2610      2612      2662
      2611      2610      2612      2612      2662      2663      2612      2662      2664
      2612      2662      2665      2613      2612      2614      2613      2612      2662
      2614      2612      2662      2615      2618      2619      2615      2618      2620
      2615      2618      2621      2616      2615      2617      2616      2615      2618
      2617      2615      2618      2618      2621      2622      2618      2621      2623
      2618      2621      2624      2619      2618      2620      2619      2618      2621
      2620      2618      2621      2621      2624      2625      2621      2624      2626
      2621      2624      2627      2622      2621      2623      2622      2621      2624
      2623      2621      2624      2624      2627      2628      2624      2627      2629
      2624      2627      2630      2625      2624      2626      2625      2624      2627
      2626      2624      2627      2627      2630      2631      2627      2630      2632
      2627      2630      2633      2628      2627      2629      2628      2627      2630
      2629      2627      2630      2630      2633      2634      2630      2633      2635
      2631      2630      2632      2631      2630      2633      2632      2630      2633
      2633      2635      2636      2633      2635      2637      2634      2633      2635
      2635      2637      2638      2635      2637      2639      2635      2637      2640
      2636      2635      2637      2637      2640      2641      2637      2640      2642
      2637      2640      2643      2638      2637      2639      2638      2637      2640
      2639      2637      2640      2640      2643      2644      2640      2643      2645
      2640      2643      2646      2641      2640      2642      2641      2640      2643
      2642      2640      2643      2643      2646      2647      2643      2646      2648
      2643      2646      2649      2644      2643      2645      2644      2643      2646
      2645      2643      2646      2646      2649      2650      2646      2649      2651
      2646      2649      2652      2647      2646      2648      2647      2646      2649
      2648      2646      2649      2649      2652      2653      2649      2652      2654
      2649      2652      2655      2650      2649      2651      2650      2649      2652
      2651      2649      2652      2652      2655      2656      2652      2655      2657
      2652      2655      2658      2653      2652      2654      2653      2652      2655
      2654      2652      2655      2655      2658      2659      2655      2658      2660
      2655      2658      2661      2656      2655      2657      2656      2655      2658
      2657      2655      2658      2659      2658      2660      2659      2658      2661
      2660      2658      2661      2662      2665      2666      2662      2665      2667
      2662      2665      2668      2663      2662      2664      2663      2662      2665
      2664      2662      2665      2665      2668      2669      2665      2668      2670
      2665      2668      2671      2666      2665      2667      2666      2665      2668
      2667      2665      2668      2668      2671      2672      2668      2671      2673
      2668      2671      2674      2669      2668      2670      2669      2668      2671
      2670      2668      2671      2671      2674      2675      2671      2674      2676
      2671      2674      2677      2672      2671      2673      2672      2671      2674
      2673      2671      2674      2674      2677      2678      2674      2677      2679
      2674      2677      2680      2675      2674      2676      2675      2674      2677
      2676      2674      2677      2677      2680      2681      2677      2680      2682
      2678      2677      2679      2678      2677      2680      2679      2677      2680
      2680      2682      2683      2680      2682      2684      2681      2680      2682
      2682      2684      2685      2682      2684      2686      2682      2684      2687
      2683      2682      2684      2684      2687      2688      2684      2687      2689
      2684      2687      2690      2685      2684      2686      2685      2684      2687
      2686      2684      2687      2687      2690      2691      2687      2690      2692
      2687      2690      2693      2688      2687      2689      2688      2687      2690
      2689      2687      2690      2690      2693      2694      2690      2693      2695
      2690      2693      2696      2691      2690      2692      2691      2690      2693
      2692      2690      2693      2693      2696      2697      2693      2696      2698
      2693      2696      2699      2694      2693      2695      2694      2693      2696
      2695      2693      2696      2696      2699      2700      2696      2699      2701
      2696      2699      2702      2697      2696      2698      2697      2696      2699
      2698      2696      2699      2699      2702      2703      2699      2702      2704
      2699      2702      2705      2700      2699      2701      2700      2699      2702
      2701      2699      2702      2702      2705      2706      2702      2705      2707
      2702      2705      2708      2703      2702      2704      2703      2702      2705
      2704      2702      2705      2706      2705      2707      2706      2705      2708
      2707      2705      2708      2709      2710      2711      2709      2710      2712
      2709      2710      2725      2709      2713      2714      2709      2713      2715
      2709      2713      2716      2709      2717      2718      2709      2717      2719
      2709      2717      2720      2709      2721      2722      2709      2721      2723
      2709      2721      2724      2710      2709      2713      2710      2709      2717
      2710      2709      2721      2710      2725      2726      2710      2725      2727
      2710      2725      2731      2711      2710      2712      2711      2710      2725
      2712      2710      2725      2713      2709      2717      2713      2709      2721
      2714      2713      2715      2714      2713      2716      2715      2713      2716
      2717      2709      2721      2718      2717      2719      2718      2717      2720
      2719      2717      2720      2722      2721      2723      2722      2721      2724
      2723      2721      2724      2725      2731      2728      2726      2725      2727
      2726      2725      2731      2727      2725      2731      2728      2732      2733
      2729      2728      2730      2729      2728      2731      2729      2728      2732
      2730      2728      2731      2730      2728      2732      2731      2728      2732
      2732      2733      2734      2732      2733      2735      2732      2733      2736
      2733      2736      2737      2733      2736      2738      2733      2736      2744
      2734      2733      2735      2734      2733      2736      2735      2733      2736
      2736      2738      2739      2736      2744      2745      2736      2744      2746
      2736      2744      2747      2737      2736      2738      2737      2736      2744
      2738      2736      2744      2738      2739      2740      2738      2739      2741
      2739      2741      2742      2739      2741      2743      2739      2741      2753
      2740      2739      2741      2741      2753      2754      2741      2753      2755
      2741      2753      2756      2742      2741      2743      2742      2741      2753
      2743      2741      2753      2744      2747      2748      2745      2744      2746
      2745      2744      2747      2746      2744      2747      2747      2748      2749
      2747      2748      2750      2748      2750      2751      2748      2750      2752
      2748      2750      2800      2749      2748      2750      2750      2800      2801
      2750      2800      2802      2750      2800      2803      2751      2750      2752
      2751      2750      2800      2752      2750      2800      2753      2756      2757
      2753      2756      2758      2753      2756      2759      2754      2753      2755
      2754      2753      2756      2755      2753      2756      2756      2759      2760
      2756      2759      2761      2756      2759      2762      2757      2756      2758
      2757      2756      2759      2758      2756      2759      2759      2762      2763
      2759      2762      2764      2759      2762      2765      2760      2759      2761
      2760      2759      2762      2761      2759      2762      2762      2765      2766
      2762      2765      2767      2762      2765      2768      2763      2762      2764
      2763      2762      2765      2764      2762      2765      2765      2768      2769
      2765      2768      2770      2765      2768      2771      2766      2765      2767
      2766      2765      2768      2767      2765      2768      2768      2771      2772
      2768      2771      2773      2769      2768      2770      2769      2768      2771
      2770      2768      2771      2771      2773      2774      2771      2773      2775
      2772      2771      2773      2773      2775      2776      2773      2775      2777
      2773      2775      2778      2774      2773      2775      2775      2778      2779
      2775      2778      2780      2775      2778      2781      2776      2775      2777
      2776      2775      2778      2777      2775      2778      2778      2781      2782
      2778      2781      2783      2778      2781      2784      2779      2778      2780
      2779      2778      2781      2780      2778      2781      2781      2784      2785
      2781      2784      2786      2781      2784      2787      2782      2781      2783
      2782      2781      2784      2783      2781      2784      2784      2787      2788
      2784      2787      2789      2784      2787      2790      2785      2784      2786
      2785      2784      2787      2786      2784      2787      2787      2790      2791
      2787      2790      2792      2787      2790      2793      2788      2787      2789
      2788      2787      2790      2789      2787      2790      2790      2793      2794
      2790      2793      2795      2790      2793      2796      2791      2790      2792
      2791      2790      2793      2792      2790      2793      2793      2796      2797
      2793      2796      2798      2793      2796      2799      2794      2793      2795
      2794      2793      2796      2795      2793      2796      2797      2796      2798
      2797      2796      2799      2798      2796      2799      2800      2803      2804
      2800      2803      2805      2800      2803      2806      2801      2800      2802
      2801      2800      2803      2802      2800      2803      2803      2806      2807
      2803      2806      2808      2803      2806      2809      2804      2803      2805
      2804      2803      2806      2805      2803      2806      2806      2809      2810
      2806      2809      2811      2806      2809      2812      2807      2806      2808
      2807      2806      2809      2808      2806      2809      2809      2812      2813
      2809      2812      2814      2809      2812      2815      2810      2809      2811
      2810      2809      2812      2811      2809      2812      2812      2815      2816
      2812      2815      2817      2812      2815      2818      2813      2812      2814
      2813      2812      2815      2814      2812      2815      2815      2818      2819
      2815      2818      2820      2816      2815      2817      2816      2815      2818
      2817      2815      2818      2818      2820      2821      2818      2820      2822
      2819      2818      2820      2820      2822      2823      2820      2822      2824
      2820      2822      2825      2821      2820      2822      2822      2825      2826
      2822      2825      2827      2822      2825      2828      2823      2822      2824
      2823      2822      2825      2824      2822      2825      2825      2828      2829
      2825      2828      2830      2825      2828      2831      2826      2825      2827
      2826      2825      2828      2827      2825      2828      2828      2831      2832
      2828      2831      2833      2828      2831      2834      2829      2828      2830
      2829      2828      2831      2830      2828      2831      2831      2834      2835
      2831      2834      2836      2831      2834      2837      2832      2831      2833
      2832      2831      2834      2833      2831      2834      2834      2837      2838
      2834      2837      2839      2834      2837      2840      2835      2834      2836
      2835      2834      2837      2836      2834      2837      2837      2840      2841
      2837      2840      2842      2837      2840      2843      2838      2837      2839
      2838      2837      2840      2839      2837      2840      2840      2843      2844
      2840      2843      2845      2840      2843      2846      2841      2840      2842
      2841      2840      2843      2842      2840      2843      2844      2843      2845
      2844      2843      2846      2845      2843      2846      2847      2848      2849
      2847      2848      2850      2847      2848      2863      2847      2851      2852
      2847      2851      2853      2847      2851      2854      2847      2855      2856
      2847      2855      2857      2847      2855      2858      2847      2859      2860
      2847      2859      2861      2847      2859      2862      2848      2847      2851
      2848      2847      2855      2848      2847      2859      2848      2863      2864
      2848      2863      2865      2848      2863      2869      2849      2848      2850
      2849      2848      2863      2850      2848      2863      2851      2847      2855
      2851      2847      2859      2852      2851      2853      2852      2851      2854
      2853      2851      2854      2855      2847      2859      2856      2855      2857
      2856      2855      2858      2857      2855      2858      2860      2859      2861
      2860      2859      2862      2861      2859      2862      2863      2869      2866
      2864      2863      2865      2864      2863      2869      2865      2863      2869
      2866      2870      2871      2867      2866      2868      2867      2866      2869
      2867      2866      2870      2868      2866      2869      2868      2866      2870
      2869      2866      2870      2870      2871      2872      2870      2871      2873
      2870      2871      2874      2871      2874      2875      2871      2874      2876
      2871      2874      2882      2872      2871      2873      2872      2871      2874
      2873      2871      2874      2874      2876      2877      2874      2882      2883
      2874      2882      2884      2874      2882      2885      2875      2874      2876
      2875      2874      2882      2876      2874      2882      2876      2877      2878
      2876      2877      2879      2877      2879      2880      2877      2879      2881
      2877      2879      2891      2878      2877      2879      2879      2891      2892
      2879      2891      2893      2879      2891      2894      2880      2879      2881
      2880      2879      2891      2881      2879      2891      2882      2885      2886
      2883      2882      2884      2883      2882      2885      2884      2882      2885
      2885      2886      2887      2885      2886      2888      2886      2888      2889
      2886      2888      2890      2886      2888      2938      2887      2886      2888
      2888      2938      2939      2888      2938      2940      2888      2938      2941
      2889      2888      2890      2889      2888      2938      2890      2888      2938
      2891      2894      2895      2891      2894      2896      2891      2894      2897
      2892      2891      2893      2892      2891      2894      2893      2891      2894
      2894      2897      2898      2894      2897      2899      2894      2897      2900
      2895      2894      2896      2895      2894      2897      2896      2894      2897
      2897      2900      2901      2897      2900      2902      2897      2900      2903
      2898      2897      2899      2898      2897      2900      2899      2897      2900
      2900      2903      2904      2900      2903      2905      2900      2903      2906
      2901      2900      2902      2901      2900      2903      2902      2900      2903
      2903      2906      2907      2903      2906      2908      2903      2906      2909
      2904      2903      2905      2904      2903      2906      2905      2903      2906
      2906      2909      2910      2906      2909      2911      2907      2906      2908
      2907      2906      2909      2908      2906      2909      2909      2911      2912
      2909      2911      2913      2910      2909      2911      2911      2913      2914
      2911      2913      2915      2911      2913      2916      2912      2911      2913
      2913      2916      2917      2913      2916      2918      2913      2916      2919
      2914      2913      2915      2914      2913      2916      2915      2913      2916
      2916      2919      2920      2916      2919      2921      2916      2919      2922
      2917      2916      2918      2917      2916      2919      2918      2916      2919
      2919      2922      2923      2919      2922      2924      2919      2922      2925
      2920      2919      2921      2920      2919      2922      2921      2919      2922
      2922      2925      2926      2922      2925      2927      2922      2925      2928
      2923      2922      2924      2923      2922      2925      2924      2922      2925
      2925      2928      2929      2925      2928      2930      2925      2928      2931
      2926      2925      2927      2926      2925      2928      2927      2925      2928
      2928      2931      2932      2928      2931      2933      2928      2931      2934
      2929      2928      2930      2929      2928      2931      2930      2928      2931
      2931      2934      2935      2931      2934      2936      2931      2934      2937
      2932      2931      2933      2932      2931      2934      2933      2931      2934
      2935      2934      2936      2935      2934      2937      2936      2934      2937
      2938      2941      2942      2938      2941      2943      2938      2941      2944
      2939      2938      2940      2939      2938      2941      2940      2938      2941
      2941      2944      2945      2941      2944      2946      2941      2944      2947
      2942      2941      2943      2942      2941      2944      2943      2941      2944
      2944      2947      2948      2944      2947      2949      2944      2947      2950
      2945      2944      2946      2945      2944      2947      2946      2944      2947
      2947      2950      2951      2947      2950      2952      2947      2950      2953
      2948      2947      2949      2948      2947      2950      2949      2947      2950
      2950      2953      2954      2950      2953      2955      2950      2953      2956
      2951      2950      2952      2951      2950      2953      2952      2950      2953
      2953      2956      2957      2953      2956      2958      2954      2953      2955
      2954      2953      2956      2955      2953      2956      2956      2958      2959
      2956      2958      2960      2957      2956      2958      2958      2960      2961
      2958      2960      2962      2958      2960      2963      2959      2958      2960
      2960      2963      2964      2960      2963      2965      2960      2963      2966
      2961      2960      2962      2961      2960      2963      2962      2960      2963
      2963      2966      2967      2963      2966      2968      2963      2966      2969
      2964      2963      2965      2964      2963      2966      2965      2963      2966
      2966      2969      2970      2966      2969      2971      2966      2969      2972
      2967      2966      2968      2967      2966      2969      2968      2966      2969
      2969      2972      2973      2969      2972      2974      2969      2972      2975
      2970      2969      2971      2970      2969      2972      2971      2969      2972
      2972      2975      2976      2972      2975      2977      2972      2975      2978
      2973      2972      2974      2973      2972      2975      2974      2972      2975
      2975      2978      2979      2975      2978      2980      2975      2978      2981
      2976      2975      2977      2976      2975      2978      2977      2975      2978
      2978      2981      2982      2978      2981      2983      2978      2981      2984
      2979      2978      2980      2979      2978      2981      2980      2978      2981
      2982      2981      2983      2982      2981      2984      2983      2981      2984
      2985      2986      2987      2985      2986      2988      2985      2986      3001
      2985      2989      2990      2985      2989      2991      2985      2989      2992
      2985      2993      2994      2985      2993      2995      2985      2993      2996
      2985      2997      2998      2985      2997      2999      2985      2997      3000
      2986      2985      2989      2986      2985      2993      2986      2985      2997
      2986      3001      3002      2986      3001      3003      2986      3001      3007
      2987      2986      2988      2987      2986      3001      2988      2986      3001
      2989      2985      2993      2989      2985      2997      2990      2989      2991
      2990      2989      2992      2991      2989      2992      2993      2985      2997
      2994      2993      2995      2994      2993      2996      2995      2993      2996
      2998      2997      2999      2998      2997      3000      2999      2997      3000
      3001      3007      3004      3002      3001      3003      3002      3001      3007
      3003      3001      3007      3004      3008      3009      3005      3004      3006
      3005      3004      3007      3005      3004      3008      3006      3004      3007
      3006      3004      3008      3007      3004      3008      3008      3009      3010
      3008      3009      3011      3008      3009      3012      3009      3012      3013
      3009      3012      3014      3009      3012      3020      3010      3009      3011
      3010      3009      3012      3011      3009      3012      3012      3014      3015
      3012      3020      3021      3012      3020      3022      3012      3020      3023
      3013      3012      3014      3013      3012      3020      3014      3012      3020
      3014      3015      3016      3014      3015      3017      3015      3017      3018
      3015      3017      3019      3015      3017      3029      3016      3015      3017
      3017      3029      3030      3017      3029      3031      3017      3029      3032
      3018      3017      3019      3018      3017      3029      3019      3017      3029
      3020      3023      3024      3021      3020      3022      3021      3020      3023
      3022      3020      3023      3023      3024      3025      3023      3024      3026
      3024      3026      3027      3024      3026      3028      3024      3026      3076
      3025      3024      3026      3026      3076      3077      3026      3076      3078
      3026      3076      3079      3027      3026      3028      3027      3026      3076
      3028      3026      3076      3029      3032      3033      3029      3032      3034
      3029      3032      3035      3030      3029      3031      3030      3029      3032
      3031      3029      3032      3032      3035      3036      3032      3035      3037
      3032      3035      3038      3033      3032      3034      3033      3032      3035
      3034      3032      3035      3035      3038      3039      3035      3038      3040
      3035      3038      3041      3036      3035      3037      3036      3035      3038
      3037      3035      3038      3038      3041      3042      3038      3041      3043
      3038      3041      3044      3039      3038      3040      3039      3038      3041
      3040      3038      3041      3041      3044      3045      3041      3044      3046
      3041      3044      3047      3042      3041      3043      3042      3041      3044
      3043      3041      3044      3044      3047      3048      3044      3047      3049
      3045      3044      3046      3045      3044      3047      3046      3044      3047
      3047      3049      3050      3047      3049      3051      3048      3047      3049
      3049      3051      3052      3049      3051      3053      3049      3051      3054
      3050      3049      3051      3051      3054      3055      3051      3054      3056
      3051      3054      3057      3052      3051      3053      3052      3051      3054
      3053      3051      3054      3054      3057      3058      3054      3057      3059
      3054      3057      3060      3055      3054      3056      3055      3054      3057
      3056      3054      3057      3057      3060      3061      3057      3060      3062
      3057      3060      3063      3058      3057      3059      3058      3057      3060
      3059      3057      3060      3060      3063      3064      3060      3063      3065
      3060      3063      3066      3061      3060      3062      3061      3060      3063
      3062      3060      3063      3063      3066      3067      3063      3066      3068
      3063      3066      3069      3064      3063      3065      3064      3063      3066
      3065      3063      3066      3066      3069      3070      3066      3069      3071
      3066      3069      3072      3067      3066      3068      3067      3066      3069
      3068      3066      3069      3069      3072      3073      3069      3072      3074
      3069      3072      3075      3070      3069      3071      3070      3069      3072
      3071      3069      3072      3073      3072      3074      3073      3072      3075
      3074      3072      3075      3076      3079      3080      3076      3079      3081
      3076      3079      3082      3077      3076      3078      3077      3076      3079
      3078      3076      3079      3079      3082      3083      3079      3082      3084
      3079      3082      3085      3080      3079      3081      3080      3079      3082
      3081      3079      3082      3082      3085      3086      3082      3085      3087
      3082      3085      3088      3083      3082      3084      3083      3082      3085
      3084      3082      3085      3085      3088      3089      3085      3088      3090
      3085      3088      3091      3086      3085      3087      3086      3085      3088
      3087      3085      3088      3088      3091      3092      3088      3091      3093
      3088      3091      3094      3089      3088      3090      3089      3088      3091
      3090      3088      3091      3091      3094      3095      3091      3094      3096
      3092      3091      3093      3092      3091      3094      3093      3091      3094
      3094      3096      3097      3094      3096      3098      3095      3094      3096
      3096      3098      3099      3096      3098      3100      3096      3098      3101
      3097      3096      3098      3098      3101      3102      3098      3101      3103
      3098      3101      3104      3099      3098      3100      3099      3098      3101
      3100      3098      3101      3101      3104      3105      3101      3104      3106
      3101      3104      3107      3102      3101      3103      3102      3101      3104
      3103      3101      3104      3104      3107      3108      3104      3107      3109
      3104      3107      3110      3105      3104      3106      3105      3104      3107
      3106      3104      3107      3107      3110      3111      3107      3110      3112
      3107      3110      3113      3108      3107      3109      3108      3107      3110
      3109      3107      3110      3110      3113      3114      3110      3113      3115
      3110      3113      3116      3111      3110      3112      3111      3110      3113
      3112      3110      3113      3113      3116      3117      3113      3116      3118
      3113      3116      3119      3114      3113      3115      3114      3113      3116
      3115      3113      3116      3116      3119      3120      3116      3119      3121
      3116      3119      3122      3117      3116      3118      3117      3116      3119
      3118      3116      3119      3120      3119      3121      3120      3119      3122
      3121      3119      3122      3123      3124      3125      3123      3124      3126
      3123      3124      3139      3123      3127      3128      3123      3127      3129
      3123      3127      3130      3123      3131      3132      3123      3131      3133
      3123      3131      3134      3123      3135      3136      3123      3135      3137
      3123      3135      3138      3124      3123      3127      3124      3123      3131
      3124      3123      3135      3124      3139      3140      3124      3139      3141
      3124      3139      3145      3125      3124      3126      3125      3124      3139
      3126      3124      3139      3127      3123      3131      3127      3123      3135
      3128      3127      3129      3128      3127      3130      3129      3127      3130
      3131      3123      3135      3132      3131      3133      3132      3131      3134
      3133      3131      3134      3136      3135      3137      3136      3135      3138
      3137      3135      3138      3139      3145      3142      3140      3139      3141
      3140      3139      3145      3141      3139      3145      3142      3146      3147
      3143      3142      3144      3143      3142      3145      3143      3142      3146
      3144      3142      3145      3144      3142      3146      3145      3142      3146
      3146      3147      3148      3146      3147      3149      3146      3147      3150
      3147      3150      3151      3147      3150      3152      3147      3150      3158
      3148      3147      3149      3148      3147      3150      3149      3147      3150
      3150      3152      3153      3150      3158      3159      3150      3158      3160
      3150      3158      3161      3151      3150      3152      3151      3150      3158
      3152      3150      3158      3152      3153      3154      3152      3153      3155
      3153      3155      3156      3153      3155      3157      3153      3155      3167
      3154      3153      3155      3155      3167      3168      3155      3167      3169
      3155      3167      3170      3156      3155      3157      3156      3155      3167
      3157      3155      3167      3158      3161      3162      3159      3158      3160
      3159      3158      3161      3160      3158      3161      3161      3162      3163
      3161      3162      3164      3162      3164      3165      3162      3164      3166
      3162      3164      3214      3163      3162      3164      3164      3214      3215
      3164      3214      3216      3164      3214      3217      3165      3164      3166
      3165      3164      3214      3166      3164      3214      3167      3170      3171
      3167      3170      3172      3167      3170      3173      3168      3167      3169
      3168      3167      3170      3169      3167      3170      3170      3173      3174
      3170      3173      3175      3170      3173      3176      3171      3170      3172
      3171      3170      3173      3172      3170      3173      3173      3176      3177
      3173      3176      3178      3173      3176      3179      3174      3173      3175
      3174      3173      3176      3175      3173      3176      3176      3179      3180
      3176      3179      3181      3176      3179      3182      3177      3176      3178
      3177      3176      3179      3178      3176      3179      3179      3182      3183
      3179      3182      3184      3179      3182      3185      3180      3179      3181
      3180      3179      3182      3181      3179      3182      3182      3185      3186
      3182      3185      3187      3183      3182      3184      3183      3182      3185
      3184      3182      3185      3185      3187      3188      3185      3187      3189
      3186      3185      3187      3187      3189      3190      3187      3189      3191
      3187      3189      3192      3188      3187      3189      3189      3192      3193
      3189      3192      3194      3189      3192      3195      3190      3189      3191
      3190      3189      3192      3191      3189      3192      3192      3195      3196
      3192      3195      3197      3192      3195      3198      3193      3192      3194
      3193      3192      3195      3194      3192      3195      3195      3198      3199
      3195      3198      3200      3195      3198      3201      3196      3195      3197
      3196      3195      3198      3197      3195      3198      3198      3201      3202
      3198      3201      3203      3198      3201      3204      3199      3198      3200
      3199      3198      3201      3200      3198      3201      3201      3204      3205
      3201      3204      3206      3201      3204      3207      3202      3201      3203
      3202      3201      3204      3203      3201      3204      3204      3207      3208
      3204      3207      3209      3204      3207      3210      3205      3204      3206
      3205      3204      3207      3206      3204      3207      3207      3210      3211
      3207      3210      3212      3207      3210      3213      3208      3207      3209
      3208      3207      3210      3209      3207      3210      3211      3210      3212
      3211      3210      3213      3212      3210      3213      3214      3217      3218
      3214      3217      3219      3214      3217      3220      3215      3214      3216
      3215      3214      3217      3216      3214      3217      3217      3220      3221
      3217      3220      3222      3217      3220      3223      3218      3217      3219
      3218      3217      3220      3219      3217      3220      3220      3223      3224
      3220      3223      3225      3220      3223      3226      3221      3220      3222
      3221      3220      3223      3222      3220      3223      3223      3226      3227
      3223      3226      3228      3223      3226      3229      3224      3223      3225
      3224      3223      3226      3225      3223      3226      3226      3229      3230
      3226      3229      3231      3226      3229      3232      3227      3226      3228
      3227      3226      3229      3228      3226      3229      3229      3232      3233
      3229      3232      3234      3230      3229      3231      3230      3229      3232
      3231      3229      3232      3232      3234      3235      3232      3234      3236
      3233      3232      3234      3234      3236      3237      3234      3236      3238
      3234      3236      3239      3235      3234      3236      3236      3239      3240
      3236      3239      3241      3236      3239      3242      3237      3236      3238
      3237      3236      3239      3238      3236      3239      3239      3242      3243
      3239      3242      3244      3239      3242      3245      3240      3239      3241
      3240      3239      3242      3241      3239      3242      3242      3245      3246
      3242      3245      3247      3242      3245      3248      3243      3242      3244
      3243      3242      3245      3244      3242      3245      3245      3248      3249
      3245      3248      3250      3245      3248      3251      3246      3245      3247
      3246      3245      3248      3247      3245      3248      3248      3251      3252
      3248      3251      3253      3248      3251      3254      3249      3248      3250
      3249      3248      3251      3250      3248      3251      3251      3254      3255
      3251      3254      3256      3251      3254      3257      3252      3251      3253
      3252      3251      3254      3253      3251      3254      3254      3257      3258
      3254      3257      3259      3254      3257      3260      3255      3254      3256
      3255      3254      3257      3256      3254      3257      3258      3257      3259
      3258      3257      3260      3259      3257      3260      3261      3262      3263
      3261      3262      3264      3261      3262      3277      3261      3265      3266
      3261      3265      3267      3261      3265      3268      3261      3269      3270
      3261      3269      3271      3261      3269      3272      3261      3273      3274
      3261      3273      3275      3261      3273      3276      3262      3261      3265
      3262      3261      3269      3262      3261      3273      3262      3277      3278
      3262      3277      3279      3262      3277      3283      3263      3262      3264
      3263      3262      3277      3264      3262      3277      3265      3261      3269
      3265      3261      3273      3266      3265      3267      3266      3265      3268
      3267      3265      3268      3269      3261      3273      3270      3269      3271
      3270      3269      3272      3271      3269      3272      3274      3273      3275
      3274      3273      3276      3275      3273      3276      3277      3283      3280
      3278      3277      3279      3278      3277      3283      3279      3277      3283
      3280      3284      3285      3281      3280      3282      3281      3280      3283
      3281      3280      3284      3282      3280      3283      3282      3280      3284
      3283      3280      3284      3284      3285      3286      3284      3285      3287
      3284      3285      3288      3285      3288      3289      3285      3288      3290
      3285      3288      3296      3286      3285      3287      3286      3285      3288
      3287      3285      3288      3288      3290      3291      3288      3296      3297
      3288      3296      3298      3288      3296      3299      3289      3288      3290
      3289      3288      3296      3290      3288      3296      3290      3291      3292
      3290      3291      3293      3291      3293      3294      3291      3293      3295
      3291      3293      3305      3292      3291      3293      3293      3305      3306
      3293      3305      3307      3293      3305      3308      3294      3293      3295
      3294      3293      3305      3295      3293      3305      3296      3299      3300
      3297      3296      3298      3297      3296      3299      3298      3296      3299
      3299      3300      3301      3299      3300      3302      3300      3302      3303
      3300      3302      3304      3300      3302      3352      3301      3300      3302
      3302      3352      3353      3302      3352      3354      3302      3352      3355
      3303      3302      3304      3303      3302      3352      3304      3302      3352
      3305      3308      3309      3305      3308      3310      3305      3308      3311
      3306      3305      3307      3306      3305      3308      3307      3305      3308
      3308      3311      3312      3308      3311      3313      3308      3311      3314
      3309      3308      3310      3309      3308      3311      3310      3308      3311
      3311      3314      3315      3311      3314      3316      3311      3314      3317
      3312      3311      3313      3312      3311      3314      3313      3311      3314
      3314      3317      3318      3314      3317      3319      3314      3317      3320
      3315      3314      3316      3315      3314      3317      3316      3314      3317
      3317      3320      3321      3317      3320      3322      3317      3320      3323
      3318      3317      3319      3318      3317      3320      3319      3317      3320
      3320      3323      3324      3320      3323      3325      3321      3320      3322
      3321      3320      3323      3322      3320      3323      3323      3325      3326
      3323      3325      3327      3324      3323      3325      3325      3327      3328
      3325      3327      3329      3325      3327      3330      3326      3325      3327
      3327      3330      3331      3327      3330      3332      3327      3330      3333
      3328      3327      3329      3328      3327      3330      3329      3327      3330
      3330      3333      3334      3330      3333      3335      3330      3333      3336
      3331      3330      3332      3331      3330      3333      3332      3330      3333
      3333      3336      3337      3333      3336      3338      3333      3336      3339
      3334      3333      3335      3334      3333      3336      3335      3333      3336
      3336      3339      3340      3336      3339      3341      3336      3339      3342
      3337      3336      3338      3337      3336      3339      3338      3336      3339
      3339      3342      3343      3339      3342      3344      3339      3342      3345
      3340      3339      3341      3340      3339      3342      3341      3339      3342
      3342      3345      3346      3342      3345      3347      3342      3345      3348
      3343      3342      3344      3343      3342      3345      3344      3342      3345
      3345      3348      3349      3345      3348      3350      3345      3348      3351
      3346      3345      3347      3346      3345      3348      3347      3345      3348
      3349      3348      3350      3349      3348      3351      3350      3348      3351
      3352      3355      3356      3352      3355      3357      3352      3355      3358
      3353      3352      3354      3353      3352      3355      3354      3352      3355
      3355      3358      3359      3355      3358      3360      3355      3358      3361
      3356      3355      3357      3356      3355      3358      3357      3355      3358
      3358      3361      3362      3358      3361      3363      3358      3361      3364
      3359      3358      3360      3359      3358      3361      3360      3358      3361
      3361      3364      3365      3361      3364      3366      3361      3364      3367
      3362      3361      3363      3362      3361      3364      3363      3361      3364
      3364      3367      3368      3364      3367      3369      3364      3367      3370
      3365      3364      3366      3365      3364      3367      3366      3364      3367
      3367      3370      3371      3367      3370      3372      3368      3367      3369
      3368      3367      3370      3369      3367      3370      3370      3372      3373
      3370      3372      3374      3371      3370      3372      3372      3374      3375
      3372      3374      3376      3372      3374      3377      3373      3372      3374
      3374      3377      3378      3374      3377      3379      3374      3377      3380
      3375      3374      3376      3375      3374      3377      3376      3374      3377
      3377      3380      3381      3377      3380      3382      3377      3380      3383
      3378      3377      3379      3378      3377      3380      3379      3377      3380
      3380      3383      3384      3380      3383      3385      3380      3383      3386
      3381      3380      3382      3381      3380      3383      3382      3380      3383
      3383      3386      3387      3383      3386      3388      3383      3386      3389
      3384      3383      3385      3384      3383      3386      3385      3383      3386
      3386      3389      3390      3386      3389      3391      3386      3389      3392
      3387      3386      3388      3387      3386      3389      3388      3386      3389
      3389      3392      3393      3389      3392      3394      3389      3392      3395
      3390      3389      3391      3390      3389      3392      3391      3389      3392
      3392      3395      3396      3392      3395      3397      3392      3395      3398
      3393      3392      3394      3393      3392      3395      3394      3392      3395
      3396      3395      3397      3396      3395      3398      3397      3395      3398
      3399      3400      3401      3399      3400      3402      3399      3400      3415
      3399      3403      3404      3399      3403      3405      3399      3403      3406
      3399      3407      3408      3399      3407      3409      3399      3407      3410
      3399      3411      3412      3399      3411      3413      3399      3411      3414
      3400      3399      3403      3400      3399      3407      3400      3399      3411
      3400      3415      3416      3400      3415      3417      3400      3415      3421
      3401      3400      3402      3401      3400      3415      3402      3400      3415
      3403      3399      3407      3403      3399      3411      3404      3403      3405
      3404      3403      3406      3405      3403      3406      3407      3399      3411
      3408      3407      3409      3408      3407      3410      3409      3407      3410
      3412      3411      3413      3412      3411      3414      3413      3411      3414
      3415      3421      3418      3416      3415      3417      3416      3415      3421
      3417      3415      3421      3418      3422      3423      3419      3418      3420
      3419      3418      3421      3419      3418      3422      3420      3418      3421
      3420      3418      3422      3421      3418      3422      3422      3423      3424
      3422      3423      3425      3422      3423      3426      3423      3426      3427
      3423      3426      3428      3423      3426      3434      3424      3423      3425
      3424      3423      3426      3425      3423      3426      3426      3428      3429
      3426      3434      3435      3426      3434      3436      3426      3434      3437
      3427      3426      3428      3427      3426      3434      3428      3426      3434
      3428      3429      3430      3428      3429      3431      3429      3431      3432
      3429      3431      3433      3429      3431      3443      3430      3429      3431
      3431      3443      3444      3431      3443      3445      3431      3443      3446
      3432      3431      3433      3432      3431      3443      3433      3431      3443
      3434      3437      3438      3435      3434      3436      3435      3434      3437
      3436      3434      3437      3437      3438      3439      3437      3438      3440
      3438      3440      3441      3438      3440      3442      3438      3440      3490
      3439      3438      3440      3440      3490      3491      3440      3490      3492
      3440      3490      3493      3441      3440      3442      3441      3440      3490
      3442      3440      3490      3443      3446      3447      3443      3446      3448
      3443      3446      3449      3444      3443      3445      3444      3443      3446
      3445      3443      3446      3446      3449      3450      3446      3449      3451
      3446      3449      3452      3447      3446      3448      3447      3446      3449
      3448      3446      3449      3449      3452      3453      3449      3452      3454
      3449      3452      3455      3450      3449      3451      3450      3449      3452
      3451      3449      3452      3452      3455      3456      3452      3455      3457
      3452      3455      3458      3453      3452      3454      3453      3452      3455
      3454      3452      3455      3455      3458      3459      3455      3458      3460
      3455      3458      3461      3456      3455      3457      3456      3455      3458
      3457      3455      3458      3458      3461      3462      3458      3461      3463
      3459      3458      3460      3459      3458      3461      3460      3458      3461
      3461      3463      3464      3461      3463      3465      3462      3461      3463
      3463      3465      3466      3463      3465      3467      3463      3465      3468
      3464      3463      3465      3465      3468      3469      3465      3468      3470
      3465      3468      3471      3466      3465      3467      3466      3465      3468
      3467      3465      3468      3468      3471      3472      3468      3471      3473
      3468      3471      3474      3469      3468      3470      3469      3468      3471
      3470      3468      3471      3471      3474      3475      3471      3474      3476
      3471      3474      3477      3472      3471      3473      3472      3471      3474
      3473      3471      3474      3474      3477      3478      3474      3477      3479
      3474      3477      3480      3475      3474      3476      3475      3474      3477
      3476      3474      3477      3477      3480      3481      3477      3480      3482
      3477      3480      3483      3478      3477      3479      3478      3477      3480
      3479      3477      3480      3480      3483      3484      3480      3483      3485
      3480      3483      3486      3481      3480      3482      3481      3480      3483
      3482      3480      3483      3483      3486      3487      3483      3486      3488
      3483      3486      3489      3484      3483      3485      3484      3483      3486
      3485      3483      3486      3487      3486      3488      3487      3486      3489
      3488      3486      3489      3490      3493      3494      3490      3493      3495
      3490      3493      3496      3491      3490      3492      3491      3490      3493
      3492      3490      3493      3493      3496      3497      3493      3496      3498
      3493      3496      3499      3494      3493      3495      3494      3493      3496
      3495      3493      3496      3496      3499      3500      3496      3499      3501
      3496      3499      3502      3497      3496      3498      3497      3496      3499
      3498      3496      3499      3499      3502      3503      3499      3502      3504
      3499      3502      3505      3500      3499      3501      3500      3499      3502
      3501      3499      3502      3502      3505      3506      3502      3505      3507
      3502      3505      3508      3503      3502      3504      3503      3502      3505
      3504      3502      3505      3505      3508      3509      3505      3508      3510
      3506      3505      3507      3506      3505      3508      3507      3505      3508
      3508      3510      3511      3508      3510      3512      3509      3508      3510
      3510      3512      3513      3510      3512      3514      3510      3512      3515
      3511      3510      3512      3512      3515      3516      3512      3515      3517
      3512      3515      3518      3513      3512      3514      3513      3512      3515
      3514      3512      3515      3515      3518      3519      3515      3518      3520
      3515      3518      3521      3516      3515      3517      3516      3515      3518
      3517      3515      3518      3518      3521      3522      3518      3521      3523
      3518      3521      3524      3519      3518      3520      3519      3518      3521
      3520      3518      3521      3521      3524      3525      3521      3524      3526
      3521      3524      3527      3522      3521      3523      3522      3521      3524
      3523      3521      3524      3524      3527      3528      3524      3527      3529
      3524      3527      3530      3525      3524      3526      3525      3524      3527
      3526      3524      3527      3527      3530      3531      3527      3530      3532
      3527      3530      3533      3528      3527      3529      3528      3527      3530
      3529      3527      3530      3530      3533      3534      3530      3533      3535
      3530      3533      3536      3531      3530      3532      3531      3530      3533
      3532      3530      3533      3534      3533      3535      3534      3533      3536
      3535      3533      3536      3537      3538      3539      3537      3538      3540
      3537      3538      3553      3537      3541      3542      3537      3541      3543
      3537      3541      3544      3537      3545      3546      3537      3545      3547
      3537      3545      3548      3537      3549      3550      3537      3549      3551
      3537      3549      3552      3538      3537      3541      3538      3537      3545
      3538      3537      3549      3538      3553      3554      3538      3553      3555
      3538      3553      3559      3539      3538      3540      3539      3538      3553
      3540      3538      3553      3541      3537      3545      3541      3537      3549
      3542      3541      3543      3542      3541      3544      3543      3541      3544
      3545      3537      3549      3546      3545      3547      3546      3545      3548
      3547      3545      3548      3550      3549      3551      3550      3549      3552
      3551      3549      3552      3553      3559      3556      3554      3553      3555
      3554      3553      3559      3555      3553      3559      3556      3560      3561
      3557      3556      3558      3557      3556      3559      3557      3556      3560
      3558      3556      3559      3558      3556      3560      3559      3556      3560
      3560      3561      3562      3560      3561      3563      3560      3561      3564
      3561      3564      3565      3561      3564      3566      3561      3564      3572
      3562      3561      3563      3562      3561      3564      3563      3561      3564
      3564      3566      3567      3564      3572      3573      3564      3572      3574
      3564      3572      3575      3565      3564      3566      3565      3564      3572
      3566      3564      3572      3566      3567      3568      3566      3567      3569
      3567      3569      3570      3567      3569      3571      3567      3569      3581
      3568      3567      3569      3569      3581      3582      3569      3581      3583
      3569      3581      3584      3570      3569      3571      3570      3569      3581
      3571      3569      3581      3572      3575      3576      3573      3572      3574
      3573      3572      3575      3574      3572      3575      3575      3576      3577
      3575      3576      3578      3576      3578      3579      3576      3578      3580
      3576      3578      3628      3577      3576      3578      3578      3628      3629
      3578      3628      3630      3578      3628      3631      3579      3578      3580
      3579      3578      3628      3580      3578      3628      3581      3584      3585
      3581      3584      3586      3581      3584      3587      3582      3581      3583
      3582      3581      3584      3583      3581      3584      3584      3587      3588
      3584      3587      3589      3584      3587      3590      3585      3584      3586
      3585      3584      3587      3586      3584      3587      3587      3590      3591
      3587      3590      3592      3587      3590      3593      3588      3587      3589
      3588      3587      3590      3589      3587      3590      3590      3593      3594
      3590      3593      3595      3590      3593      3596      3591      3590      3592
      3591      3590      3593      3592      3590      3593      3593      3596      3597
      3593      3596      3598      3593      3596      3599      3594      3593      3595
      3594      3593      3596      3595      3593      3596      3596      3599      3600
      3596      3599      3601      3597      3596      3598      3597      3596      3599
      3598      3596      3599      3599      3601      3602      3599      3601      3603
      3600      3599      3601      3601      3603      3604      3601      3603      3605
      3601      3603      3606      3602      3601      3603      3603      3606      3607
      3603      3606      3608      3603      3606      3609      3604      3603      3605
      3604      3603      3606      3605      3603      3606      3606      3609      3610
      3606      3609      3611      3606      3609      3612      3607      3606      3608
      3607      3606      3609      3608      3606      3609      3609      3612      3613
      3609      3612      3614      3609      3612      3615      3610      3609      3611
      3610      3609      3612      3611      3609      3612      3612      3615      3616
      3612      3615      3617      3612      3615      3618      3613      3612      3614
      3613      3612      3615      3614      3612      3615      3615      3618      3619
      3615      3618      3620      3615      3618      3621      3616      3615      3617
      3616      3615      3618      3617      3615      3618      3618      3621      3622
      3618      3621      3623      3618      3621      3624      3619      3618      3620
      3619      3618      3621      3620      3618      3621      3621      3624      3625
      3621      3624      3626      3621      3624      3627      3622      3621      3623
      3622      3621      3624      3623      3621      3624      3625      3624      3626
      3625      3624      3627      3626      3624      3627      3628      3631      3632
      3628      3631      3633      3628      3631      3634      3629      3628      3630
      3629      3628      3631      3630      3628      3631      3631      3634      3635
      3631      3634      3636      3631      3634      3637      3632      3631      3633
      3632      3631      3634      3633      3631      3634      3634      3637      3638
      3634      3637      3639      3634      3637      3640      3635      3634      3636
      3635      3634      3637      3636      3634      3637      3637      3640      3641
      3637      3640      3642      3637      3640      3643      3638      3637      3639
      3638      3637      3640      3639      3637      3640      3640      3643      3644
      3640      3643      3645      3640      3643      3646      3641      3640      3642
      3641      3640      3643      3642      3640      3643      3643      3646      3647
      3643      3646      3648      3644      3643      3645      3644      3643      3646
      3645      3643      3646      3646      3648      3649      3646      3648      3650
      3647      3646      3648      3648      3650      3651      3648      3650      3652
      3648      3650      3653      3649      3648      3650      3650      3653      3654
      3650      3653      3655      3650      3653      3656      3651      3650      3652
      3651      3650      3653      3652      3650      3653      3653      3656      3657
      3653      3656      3658      3653      3656      3659      3654      3653      3655
      3654      3653      3656      3655      3653      3656      3656      3659      3660
      3656      3659      3661      3656      3659      3662      3657      3656      3658
      3657      3656      3659      3658      3656      3659      3659      3662      3663
      3659      3662      3664      3659      3662      3665      3660      3659      3661
      3660      3659      3662      3661      3659      3662      3662      3665      3666
      3662      3665      3667      3662      3665      3668      3663      3662      3664
      3663      3662      3665      3664      3662      3665      3665      3668      3669
      3665      3668      3670      3665      3668      3671      3666      3665      3667
      3666      3665      3668      3667      3665      3668      3668      3671      3672
      3668      3671      3673      3668      3671      3674      3669      3668      3670
      3669      3668      3671      3670      3668      3671      3672      3671      3673
      3672      3671      3674      3673      3671      3674      3675      3676      3677
      3675      3676      3678      3675      3676      3691      3675      3679      3680
      3675      3679      3681      3675      3679      3682      3675      3683      3684
      3675      3683      3685      3675      3683      3686      3675      3687      3688
      3675      3687      3689      3675      3687      3690      3676      3675      3679
      3676      3675      3683      3676      3675      3687      3676      3691      3692
      3676      3691      3693      3676      3691      3697      3677      3676      3678
      3677      3676      3691      3678      3676      3691      3679      3675      3683
      3679      3675      3687      3680      3679      3681      3680      3679      3682
      3681      3679      3682      3683      3675      3687      3684      3683      3685
      3684      3683      3686      3685      3683      3686      3688      3687      3689
      3688      3687      3690      3689      3687      3690      3691      3697      3694
      3692      3691      3693      3692      3691      3697      3693      3691      3697
      3694      3698      3699      3695      3694      3696      3695      3694      3697
      3695      3694      3698      3696      3694      3697      3696      3694      3698
      3697      3694      3698      3698      3699      3700      3698      3699      3701
      3698      3699      3702      3699      3702      3703      3699      3702      3704
      3699      3702      3710      3700      3699      3701      3700      3699      3702
      3701      3699      3702      3702      3704      3705      3702      3710      3711
      3702      3710      3712      3702      3710      3713      3703      3702      3704
      3703      3702      3710      3704      3702      3710      3704      3705      3706
      3704      3705      3707      3705      3707      3708      3705      3707      3709
      3705      3707      3719      3706      3705      3707      3707      3719      3720
      3707      3719      3721      3707      3719      3722      3708      3707      3709
      3708      3707      3719      3709      3707      3719      3710      3713      3714
      3711      3710      3712      3711      3710      3713      3712      3710      3713
      3713      3714      3715      3713      3714      3716      3714      3716      3717
      3714      3716      3718      3714      3716      3766      3715      3714      3716
      3716      3766      3767      3716      3766      3768      3716      3766      3769
      3717      3716      3718      3717      3716      3766      3718      3716      3766
      3719      3722      3723      3719      3722      3724      3719      3722      3725
      3720      3719      3721      3720      3719      3722      3721      3719      3722
      3722      3725      3726      3722      3725      3727      3722      3725      3728
      3723      3722      3724      3723      3722      3725      3724      3722      3725
      3725      3728      3729      3725      3728      3730      3725      3728      3731
      3726      3725      3727      3726      3725      3728      3727      3725      3728
      3728      3731      3732      3728      3731      3733      3728      3731      3734
      3729      3728      3730      3729      3728      3731      3730      3728      3731
      3731      3734      3735      3731      3734      3736      3731      3734      3737
      3732      3731      3733      3732      3731      3734      3733      3731      3734
      3734      3737      3738      3734      3737      3739      3735      3734      3736
      3735      3734      3737      3736      3734      3737      3737      3739      3740
      3737      3739      3741      3738      3737      3739      3739      3741      3742
      3739      3741      3743      3739      3741      3744      3740      3739      3741
      3741      3744      3745      3741      3744      3746      3741      3744      3747
      3742      3741      3743      3742      3741      3744      3743      3741      3744
      3744      3747      3748      3744      3747      3749      3744      3747      3750
      3745      3744      3746      3745      3744      3747      3746      3744      3747
      3747      3750      3751      3747      3750      3752      3747      3750      3753
      3748      3747      3749      3748      3747      3750      3749      3747      3750
      3750      3753      3754      3750      3753      3755      3750      3753      3756
      3751      3750      3752      3751      3750      3753      3752      3750      3753
      3753      3756      3757      3753      3756      3758      3753      3756      3759
      3754      3753      3755      3754      3753      3756      3755      3753      3756
      3756      3759      3760      3756      3759      3761      3756      3759      3762
      3757      3756      3758      3757      3756      3759      3758      3756      3759
      3759      3762      3763      3759      3762      3764      3759      3762      3765
      3760      3759      3761      3760      3759      3762      3761      3759      3762
      3763      3762      3764      3763      3762      3765      3764      3762      3765
      3766      3769      3770      3766      3769      3771      3766      3769      3772
      3767      3766      3768      3767      3766      3769      3768      3766      3769
      3769      3772      3773      3769      3772      3774      3769      3772      3775
      3770      3769      3771      3770      3769      3772      3771      3769      3772
      3772      3775      3776      3772      3775      3777      3772      3775      3778
      3773      3772      3774      3773      3772      3775      3774      3772      3775
      3775      3778      3779      3775      3778      3780      3775      3778      3781
      3776      3775      3777      3776      3775      3778      3777      3775      3778
      3778      3781      3782      3778      3781      3783      3778      3781      3784
      3779      3778      3780      3779      3778      3781      3780      3778      3781
      3781      3784      3785      3781      3784      3786      3782      3781      3783
      3782      3781      3784      3783      3781      3784      3784      3786      3787
      3784      3786      3788      3785      3784      3786      3786      3788      3789
      3786      3788      3790      3786      3788      3791      3787      3786      3788
      3788      3791      3792      3788      3791      3793      3788      3791      3794
      3789      3788      3790      3789      3788      3791      3790      3788      3791
      3791      3794      3795      3791      3794      3796      3791      3794      3797
      3792      3791      3793      3792      3791      3794      3793      3791      3794
      3794      3797      3798      3794      3797      3799      3794      3797      3800
      3795      3794      3796      3795      3794      3797      3796      3794      3797
      3797      3800      3801      3797      3800      3802      3797      3800      3803
      3798      3797      3799      3798      3797      3800      3799      3797      3800
      3800      3803      3804      3800      3803      3805      3800      3803      3806
      3801      3800      3802      3801      3800      3803      3802      3800      3803
      3803      3806      3807      3803      3806      3808      3803      3806      3809
      3804      3803      3805      3804      3803      3806      3805      3803      3806
      3806      3809      3810      3806      3809      3811      3806      3809      3812
      3807      3806      3808      3807      3806      3809      3808      3806      3809
      3810      3809      3811      3810      3809      3812      3811      3809      3812
      3813      3814      3815      3813      3814      3816      3813      3814      3829
      3813      3817      3818      3813      3817      3819      3813      3817      3820
      3813      3821      3822      3813      3821      3823      3813      3821      3824
      3813      3825      3826      3813      3825      3827      3813      3825      3828
      3814      3813      3817      3814      3813      3821      3814      3813      3825
      3814      3829      3830      3814      3829      3831      3814      3829      3835
      3815      3814      3816      3815      3814      3829      3816      3814      3829
      3817      3813      3821      3817      3813      3825      3818      3817      3819
      3818      3817      3820      3819      3817      3820      3821      3813      3825
      3822      3821      3823      3822      3821      3824      3823      3821      3824
      3826      3825      3827      3826      3825      3828      3827      3825      3828
      3829      3835      3832      3830      3829      3831      3830      3829      3835
      3831      3829      3835      3832      3836      3837      3833      3832      3834
      3833      3832      3835      3833      3832      3836      3834      3832      3835
      3834      3832      3836      3835      3832      3836      3836      3837      3838
      3836      3837      3839      3836      3837      3840      3837      3840      3841
      3837      3840      3842      3837      3840      3848      3838      3837      3839
      3838      3837      3840      3839      3837      3840      3840      3842      3843
      3840      3848      3849      3840      3848      3850      3840      3848      3851
      3841      3840      3842      3841      3840      3848      3842      3840      3848
      3842      3843      3844      3842      3843      3845      3843      3845      3846
      3843      3845      3847      3843      3845      3857      3844      3843      3845
      3845      3857      3858      3845      3857      3859      3845      3857      3860
      3846      3845      3847      3846      3845      3857      3847      3845      3857
      3848      3851      3852      3849      3848      3850      3849      3848      3851
      3850      3848      3851      3851      3852      3853      3851      3852      3854
      3852      3854      3855      3852      3854      3856      3852      3854      3904
      3853      3852      3854      3854      3904      3905      3854      3904      3906
      3854      3904      3907      3855      3854      3856      3855      3854      3904
      3856      3854      3904      3857      3860      3861      3857      3860      3862
      3857      3860      3863      3858      3857      3859      3858      3857      3860
      3859      3857      3860      3860      3863      3864      3860      3863      3865
      3860      3863      3866      3861      3860      3862      3861      3860      3863
      3862      3860      3863      3863      3866      3867      3863      3866      3868
      3863      3866      3869      3864      3863      3865      3864      3863      3866
      3865      3863      3866      3866      3869      3870      3866      3869      3871
      3866      3869      3872      3867      3866      3868      3867      3866      3869
      3868      3866      3869      3869      3872      3873      3869      3872      3874
      3869      3872      3875      3870      3869      3871      3870      3869      3872
      3871      3869      3872      3872      3875      3876      3872      3875      3877
      3873      3872      3874      3873      3872      3875      3874      3872      3875
      3875      3877      3878      3875      3877      3879      3876      3875      3877
      3877      3879      3880      3877      3879      3881      3877      3879      3882
      3878      3877      3879      3879      3882      3883      3879      3882      3884
      3879      3882      3885      3880      3879      3881      3880      3879      3882
      3881      3879      3882      3882      3885      3886      3882      3885      3887
      3882      3885      3888      3883      3882      3884      3883      3882      3885
      3884      3882      3885      3885      3888      3889      3885      3888      3890
      3885      3888      3891      3886      3885      3887      3886      3885      3888
      3887      3885      3888      3888      3891      3892      3888      3891      3893
      3888      3891      3894      3889      3888      3890      3889      3888      3891
      3890      3888      3891      3891      3894      3895      3891      3894      3896
      3891      3894      3897      3892      3891      3893      3892      3891      3894
      3893      3891      3894      3894      3897      3898      3894      3897      3899
      3894      3897      3900      3895      3894      3896      3895      3894      3897
      3896      3894      3897      3897      3900      3901      3897      3900      3902
      3897      3900      3903      3898      3897      3899      3898      3897      3900
      3899      3897      3900      3901      3900      3902      3901      3900      3903
      3902      3900      3903      3904      3907      3908      3904      3907      3909
      3904      3907      3910      3905      3904      3906      3905      3904      3907
      3906      3904      3907      3907      3910      3911      3907      3910      3912
      3907      3910      3913      3908      3907      3909      3908      3907      3910
      3909      3907      3910      3910      3913      3914      3910      3913      3915
      3910      3913      3916      3911      3910      3912      3911      3910      3913
      3912      3910      3913      3913      3916      3917      3913      3916      3918
      3913      3916      3919      3914      3913      3915      3914      3913      3916
      3915      3913      3916      3916      3919      3920      3916      3919      3921
      3916      3919      3922      3917      3916      3918      3917      3916      3919
      3918      3916      3919      3919      3922      3923      3919      3922      3924
      3920      3919      3921      3920      3919      3922      3921      3919      3922
      3922      3924      3925      3922      3924      3926      3923      3922      3924
      3924      3926      3927      3924      3926      3928      3924      3926      3929
      3925      3924      3926      3926      3929      3930      3926      3929      3931
      3926      3929      3932      3927      3926      3928      3927      3926      3929
      3928      3926      3929      3929      3932      3933      3929      3932      3934
      3929      3932      3935      3930      3929      3931      3930      3929      3932
      3931      3929      3932      3932      3935      3936      3932      3935      3937
      3932      3935      3938      3933      3932      3934      3933      3932      3935
      3934      3932      3935      3935      3938      3939      3935      3938      3940
      3935      3938      3941      3936      3935      3937      3936      3935      3938
      3937      3935      3938      3938      3941      3942      3938      3941      3943
      3938      3941      3944      3939      3938      3940      3939      3938      3941
      3940      3938      3941      3941      3944      3945      3941      3944      3946
      3941      3944      3947      3942      3941      3943      3942      3941      3944
      3943      3941      3944      3944      3947      3948      3944      3947      3949
      3944      3947      3950      3945      3944      3946      3945      3944      3947
      3946      3944      3947      3948      3947      3949      3948      3947      3950
      3949      3947      3950      3951      3952      3953      3951      3952      3954
      3951      3952      3967      3951      3955      3956      3951      3955      3957
      3951      3955      3958      3951      3959      3960      3951      3959      3961
      3951      3959      3962      3951      3963      3964      3951      3963      3965
      3951      3963      3966      3952      3951      3955      3952      3951      3959
      3952      3951      3963      3952      3967      3968      3952      3967      3969
      3952      3967      3973      3953      3952      3954      3953      3952      3967
      3954      3952      3967      3955      3951      3959      3955      3951      3963
      3956      3955      3957      3956      3955      3958      3957      3955      3958
      3959      3951      3963      3960      3959      3961      3960      3959      3962
      3961      3959      3962      3964      3963      3965      3964      3963      3966
      3965      3963      3966      3967      3973      3970      3968      3967      3969
      3968      3967      3973      3969      3967      3973      3970      3974      3975
      3971      3970      3972      3971      3970      3973      3971      3970      3974
      3972      3970      3973      3972      3970      3974      3973      3970      3974
      3974      3975      3976      3974      3975      3977      3974      3975      3978
      3975      3978      3979      3975      3978      3980      3975      3978      3986
      3976      3975      3977      3976      3975      3978      3977      3975      3978
      3978      3980      3981      3978      3986      3987      3978      3986      3988
      3978      3986      3989      3979      3978      3980      3979      3978      3986
      3980      3978      3986      3980      3981      3982      3980      3981      3983
      3981      3983      3984      3981      3983      3985      3981      3983      3995
      3982      3981      3983      3983      3995      3996      3983      3995      3997
      3983      3995      3998      3984      3983      3985      3984      3983      3995
      3985      3983      3995      3986      3989      3990      3987      3986      3988
      3987      3986      3989      3988      3986      3989      3989      3990      3991
      3989      3990      3992      3990      3992      3993      3990      3992      3994
      3990      3992      4042      3991      3990      3992      3992      4042      4043
      3992      4042      4044      3992      4042      4045      3993      3992      3994
      3993      3992      4042      3994      3992      4042      3995      3998      3999
      3995      3998      4000      3995      3998      4001      3996      3995      3997
      3996      3995      3998      3997      3995      3998      3998      4001      4002
      3998      4001      4003      3998      4001      4004      3999      3998      4000
      3999      3998      4001      4000      3998      4001      4001      4004      4005
      4001      4004      4006      4001      4004      4007      4002      4001      4003
      4002      4001      4004      4003      4001      4004      4004      4007      4008
      4004      4007      4009      4004      4007      4010      4005      4004      4006
      4005      4004      4007      4006      4004      4007      4007      4010      4011
      4007      4010      4012      4007      4010      4013      4008      4007      4009
      4008      4007      4010      4009      4007      4010      4010      4013      4014
      4010      4013      4015      4011      4010      4012      4011      4010      4013
      4012      4010      4013      4013      4015      4016      4013      4015      4017
      4014      4013      4015      4015      4017      4018      4015      4017      4019
      4015      4017      4020      4016      4015      4017      4017      4020      4021
      4017      4020      4022      4017      4020      4023      4018      4017      4019
      4018      4017      4020      4019      4017      4020      4020      4023      4024
      4020      4023      4025      4020      4023      4026      4021      4020      4022
      4021      4020      4023      4022      4020      4023      4023      4026      4027
      4023      4026      4028      4023      4026      4029      4024      4023      4025
      4024      4023      4026      4025      4023      4026      4026      4029      4030
      4026      4029      4031      4026      4029      4032      4027      4026      4028
      4027      4026      4029      4028      4026      4029      4029      4032      4033
      4029      4032      4034      4029      4032      4035      4030      4029      4031
      4030      4029      4032      4031      4029      4032      4032      4035      4036
      4032      4035      4037      4032      4035      4038      4033      4032      4034
      4033      4032      4035      4034      4032      4035      4035      4038      4039
      4035      4038      4040      4035      4038      4041      4036      4035      4037
      4036      4035      4038      4037      4035      4038      4039      4038      4040
      4039      4038      4041      4040      4038      4041      4042      4045      4046
      4042      4045      4047      4042      4045      4048      4043      4042      4044
      4043      4042      4045      4044      4042      4045      4045      4048      4049
      4045      4048      4050      4045      4048      4051      4046      4045      4047
      4046      4045      4048      4047      4045      4048      4048      4051      4052
      4048      4051      4053      4048      4051      4054      4049      4048      4050
      4049      4048      4051      4050      4048      4051      4051      4054      4055
      4051      4054      4056      4051      4054      4057      4052      4051      4053
      4052      4051      4054      4053      4051      4054      4054      4057      4058
      4054      4057      4059      4054      4057      4060      4055      4054      4056
      4055      4054      4057      4056      4054      4057      4057      4060      4061
      4057      4060      4062      4058      4057      4059      4058      4057      4060
      4059      4057      4060      4060      4062      4063      4060      4062      4064
      4061      4060      4062      4062      4064      4065      4062      4064      4066
      4062      4064      4067      4063      4062      4064      4064      4067      4068
      4064      4067      4069      4064      4067      4070      4065      4064      4066
      4065      4064      4067      4066      4064      4067      4067      4070      4071
      4067      4070      4072      4067      4070      4073      4068      4067      4069
      4068      4067      4070      4069      4067      4070      4070      4073      4074
      4070      4073      4075      4070      4073      4076      4071      4070      4072
      4071      4070      4073      4072      4070      4073      4073      4076      4077
      4073      4076      4078      4073      4076      4079      4074      4073      4075
      4074      4073      4076      4075      4073      4076      4076      4079      4080
      4076      4079      4081      4076      4079      4082      4077      4076      4078
      4077      4076      4079      4078      4076      4079      4079      4082      4083
      4079      4082      4084      4079      4082      4085      4080      4079      4081
      4080      4079      4082      4081      4079      4082      4082      4085      4086
      4082      4085      4087      4082      4085      4088      4083      4082      4084
      4083      4082      4085      4084      4082      4085      4086      4085      4087
      4086      4085      4088      4087      4085      4088      4089      4090      4091
      4089      4090      4092      4089      4090      4105      4089      4093      4094
      4089      4093      4095      4089      4093      4096      4089      4097      4098
      4089      4097      4099      4089      4097      4100      4089      4101      4102
      4089      4101      4103      4089      4101      4104      4090      4089      4093
      4090      4089      4097      4090      4089      4101      4090      4105      4106
      4090      4105      4107      4090      4105      4111      4091      4090      4092
      4091      4090      4105      4092      4090      4105      4093      4089      4097
      4093      4089      4101      4094      4093      4095      4094      4093      4096
      4095      4093      4096      4097      4089      4101      4098      4097      4099
      4098      4097      4100      4099      4097      4100      4102      4101      4103
      4102      4101      4104      4103      4101      4104      4105      4111      4108
      4106      4105      4107      4106      4105      4111      4107      4105      4111
      4108      4112      4113      4109      4108      4110      4109      4108      4111
      4109      4108      4112      4110      4108      4111      4110      4108      4112
      4111      4108      4112      4112      4113      4114      4112      4113      4115
      4112      4113      4116      4113      4116      4117      4113      4116      4118
      4113      4116      4124      4114      4113      4115      4114      4113      4116
      4115      4113      4116      4116      4118      4119      4116      4124      4125
      4116      4124      4126      4116      4124      4127      4117      4116      4118
      4117      4116      4124      4118      4116      4124      4118      4119      4120
      4118      4119      4121      4119      4121      4122      4119      4121      4123
      4119      4121      4133      4120      4119      4121      4121      4133      4134
      4121      4133      4135      4121      4133      4136      4122      4121      4123
      4122      4121      4133      4123      4121      4133      4124      4127      4128
      4125      4124      4126      4125      4124      4127      4126      4124      4127
      4127      4128      4129      4127      4128      4130      4128      4130      4131
      4128      4130      4132      4128      4130      4180      4129      4128      4130
      4130      4180      4181      4130      4180      4182      4130      4180      4183
      4131      4130      4132      4131      4130      4180      4132      4130      4180
      4133      4136      4137      4133      4136      4138      4133      4136      4139
      4134      4133      4135      4134      4133      4136      4135      4133      4136
      4136      4139      4140      4136      4139      4141      4136      4139      4142
      4137      4136      4138      4137      4136      4139      4138      4136      4139
      4139      4142      4143      4139      4142      4144      4139      4142      4145
      4140      4139      4141      4140      4139      4142      4141      4139      4142
      4142      4145      4146      4142      4145      4147      4142      4145      4148
      4143      4142      4144      4143      4142      4145      4144      4142      4145
      4145      4148      4149      4145      4148      4150      4145      4148      4151
      4146      4145      4147      4146      4145      4148      4147      4145      4148
      4148      4151      4152      4148      4151      4153      4149      4148      4150
      4149      4148      4151      4150      4148      4151      4151      4153      4154
      4151      4153      4155      4152      4151      4153      4153      4155      4156
      4153      4155      4157      4153      4155      4158      4154      4153      4155
      4155      4158      4159      4155      4158      4160      4155      4158      4161
      4156      4155      4157      4156      4155      4158      4157      4155      4158
      4158      4161      4162      4158      4161      4163      4158      4161      4164
      4159      4158      4160      4159      4158      4161      4160      4158      4161
      4161      4164      4165      4161      4164      4166      4161      4164      4167
      4162      4161      4163      4162      4161      4164      4163      4161      4164
      4164      4167      4168      4164      4167      4169      4164      4167      4170
      4165      4164      4166      4165      4164      4167      4166      4164      4167
      4167      4170      4171      4167      4170      4172      4167      4170      4173
      4168      4167      4169      4168      4167      4170      4169      4167      4170
      4170      4173      4174      4170      4173      4175      4170      4173      4176
      4171      4170      4172      4171      4170      4173      4172      4170      4173
      4173      4176      4177      4173      4176      4178      4173      4176      4179
      4174      4173      4175      4174      4173      4176      4175      4173      4176
      4177      4176      4178      4177      4176      4179      4178      4176      4179
      4180      4183      4184      4180      4183      4185      4180      4183      4186
      4181      4180      4182      4181      4180      4183      4182      4180      4183
      4183      4186      4187      4183      4186      4188      4183      4186      4189
      4184      4183      4185      4184      4183      4186      4185      4183      4186
      4186      4189      4190      4186      4189      4191      4186      4189      4192
      4187      4186      4188      4187      4186      4189      4188      4186      4189
      4189      4192      4193      4189      4192      4194      4189      4192      4195
      4190      4189      4191      4190      4189      4192      4191      4189      4192
      4192      4195      4196      4192      4195      4197      4192      4195      4198
      4193      4192      4194      4193      4192      4195      4194      4192      4195
      4195      4198      4199      4195      4198      4200      4196      4195      4197
      4196      4195      4198      4197      4195      4198      4198      4200      4201
      4198      4200      4202      4199      4198      4200      4200      4202      4203
      4200      4202      4204      4200      4202      4205      4201      4200      4202
      4202      4205      4206      4202      4205      4207      4202      4205      4208
      4203      4202      4204      4203      4202      4205      4204      4202      4205
      4205      4208      4209      4205      4208      4210      4205      4208      4211
      4206      4205      4207      4206      4205      4208      4207      4205      4208
      4208      4211      4212      4208      4211      4213      4208      4211      4214
      4209      4208      4210      4209      4208      4211      4210      4208      4211
      4211      4214      4215      4211      4214      4216      4211      4214      4217
      4212      4211      4213      4212      4211      4214      4213      4211      4214
      4214      4217      4218      4214      4217      4219      4214      4217      4220
      4215      4214      4216      4215      4214      4217      4216      4214      4217
      4217      4220      4221      4217      4220      4222      4217      4220      4223
      4218      4217      4219      4218      4217      4220      4219      4217      4220
      4220      4223      4224      4220      4223      4225      4220      4223      4226
      4221      4220      4222      4221      4220      4223      4222      4220      4223
      4224      4223      4225      4224      4223      4226      4225      4223      4226
      4227      4228      4229      4227      4228      4230      4227      4228      4243
      4227      4231      4232      4227      4231      4233      4227      4231      4234
      4227      4235      4236      4227      4235      4237      4227      4235      4238
      4227      4239      4240      4227      4239      4241      4227      4239      4242
      4228      4227      4231      4228      4227      4235      4228      4227      4239
      4228      4243      4244      4228      4243      4245      4228      4243      4249
      4229      4228      4230      4229      4228      4243      4230      4228      4243
      4231      4227      4235      4231      4227      4239      4232      4231      4233
      4232      4231      4234      4233      4231      4234      4235      4227      4239
      4236      4235      4237      4236      4235      4238      4237      4235      4238
      4240      4239      4241      4240      4239      4242      4241      4239      4242
      4243      4249      4246      4244      4243      4245      4244      4243      4249
      4245      4243      4249      4246      4250      4251      4247      4246      4248
      4247      4246      4249      4247      4246      4250      4248      4246      4249
      4248      4246      4250      4249      4246      4250      4250      4251      4252
      4250      4251      4253      4250      4251      4254      4251      4254      4255
      4251      4254      4256      4251      4254      4262      4252      4251      4253
      4252      4251      4254      4253      4251      4254      4254      4256      4257
      4254      4262      4263      4254      4262      4264      4254      4262      4265
      4255      4254      4256      4255      4254      4262      4256      4254      4262
      4256      4257      4258      4256      4257      4259      4257      4259      4260
      4257      4259      4261      4257      4259      4271      4258      4257      4259
      4259      4271      4272      4259      4271      4273      4259      4271      4274
      4260      4259      4261      4260      4259      4271      4261      4259      4271
      4262      4265      4266      4263      4262      4264      4263      4262      4265
      4264      4262      4265      4265      4266      4267      4265      4266      4268
      4266      4268      4269      4266      4268      4270      4266      4268      4318
      4267      4266      4268      4268      4318      4319      4268      4318      4320
      4268      4318      4321      4269      4268      4270      4269      4268      4318
      4270      4268      4318      4271      4274      4275      4271      4274      4276
      4271      4274      4277      4272      4271      4273      4272      4271      4274
      4273      4271      4274      4274      4277      4278      4274      4277      4279
      4274      4277      4280      4275      4274      4276      4275      4274      4277
      4276      4274      4277      4277      4280      4281      4277      4280      4282
      4277      4280      4283      4278      4277      4279      4278      4277      4280
      4279      4277      4280      4280      4283      4284      4280      4283      4285
      4280      4283      4286      4281      4280      4282      4281      4280      4283
      4282      4280      4283      4283      4286      4287      4283      4286      4288
      4283      4286      4289      4284      4283      4285      4284      4283      4286
      4285      4283      4286      4286      4289      4290      4286      4289      4291
      4287      4286      4288      4287      4286      4289      4288      4286      4289
      4289      4291      4292      4289      4291      4293      4290      4289      4291
      4291      4293      4294      4291      4293      4295      4291      4293      4296
      4292      4291      4293      4293      4296      4297      4293      4296      4298
      4293      4296      4299      4294      4293      4295      4294      4293      4296
      4295      4293      4296      4296      4299      4300      4296      4299      4301
      4296      4299      4302      4297      4296      4298      4297      4296      4299
      4298      4296      4299      4299      4302      4303      4299      4302      4304
      4299      4302      4305      4300      4299      4301      4300      4299      4302
      4301      4299      4302      4302      4305      4306      4302      4305      4307
      4302      4305      4308      4303      4302      4304      4303      4302      4305
      4304      4302      4305      4305      4308      4309      4305      4308      4310
      4305      4308      4311      4306      4305      4307      4306      4305      4308
      4307      4305      4308      4308      4311      4312      4308      4311      4313
      4308      4311      4314      4309      4308      4310      4309      4308      4311
      4310      4308      4311      4311      4314      4315      4311      4314      4316
      4311      4314      4317      4312      4311      4313      4312      4311      4314
      4313      4311      4314      4315      4314      4316      4315      4314      4317
      4316      4314      4317      4318      4321      4322      4318      4321      4323
      4318      4321      4324      4319      4318      4320      4319      4318      4321
      4320      4318      4321      4321      4324      4325      4321      4324      4326
      4321      4324      4327      4322      4321      4323      4322      4321      4324
      4323      4321      4324      4324      4327      4328      4324      4327      4329
      4324      4327      4330      4325      4324      4326      4325      4324      4327
      4326      4324      4327      4327      4330      4331      4327      4330      4332
      4327      4330      4333      4328      4327      4329      4328      4327      4330
      4329      4327      4330      4330      4333      4334      4330      4333      4335
      4330      4333      4336      4331      4330      4332      4331      4330      4333
      4332      4330      4333      4333      4336      4337      4333      4336      4338
      4334      4333      4335      4334      4333      4336      4335      4333      4336
      4336      4338      4339      4336      4338      4340      4337      4336      4338
      4338      4340      4341      4338      4340      4342      4338      4340      4343
      4339      4338      4340      4340      4343      4344      4340      4343      4345
      4340      4343      4346      4341      4340      4342      4341      4340      4343
      4342      4340      4343      4343      4346      4347      4343      4346      4348
      4343      4346      4349      4344      4343      4345      4344      4343      4346
      4345      4343      4346      4346      4349      4350      4346      4349      4351
      4346      4349      4352      4347      4346      4348      4347      4346      4349
      4348      4346      4349      4349      4352      4353      4349      4352      4354
      4349      4352      4355      4350      4349      4351      4350      4349      4352
      4351      4349      4352      4352      4355      4356      4352      4355      4357
      4352      4355      4358      4353      4352      4354      4353      4352      4355
      4354      4352      4355      4355      4358      4359      4355      4358      4360
      4355      4358      4361      4356      4355      4357      4356      4355      4358
      4357      4355      4358      4358      4361      4362      4358      4361      4363
      4358      4361      4364      4359      4358      4360      4359      4358      4361
      4360      4358      4361      4362      4361      4363      4362      4361      4364
      4363      4361      4364      4365      4366      4367      4365      4366      4368
      4365      4366      4381      4365      4369      4370      4365      4369      4371
      4365      4369      4372      4365      4373      4374      4365      4373      4375
      4365      4373      4376      4365      4377      4378      4365      4377      4379
      4365      4377      4380      4366      4365      4369      4366      4365      4373
      4366      4365      4377      4366      4381      4382      4366      4381      4383
      4366      4381      4387      4367      4366      4368      4367      4366      4381
      4368      4366      4381      4369      4365      4373      4369      4365      4377
      4370      4369      4371      4370      4369      4372      4371      4369      4372
      4373      4365      4377      4374      4373      4375      4374      4373      4376
      4375      4373      4376      4378      4377      4379      4378      4377      4380
      4379      4377      4380      4381      4387      4384      4382      4381      4383
      4382      4381      4387      4383      4381      4387      4384      4388      4389
      4385      4384      4386      4385      4384      4387      4385      4384      4388
      4386      4384      4387      4386      4384      4388      4387      4384      4388
      4388      4389      4390      4388      4389      4391      4388      4389      4392
      4389      4392      4393      4389      4392      4394      4389      4392      4400
      4390      4389      4391      4390      4389      4392      4391      4389      4392
      4392      4394      4395      4392      4400      4401      4392      4400      4402
      4392      4400      4403      4393      4392      4394      4393      4392      4400
      4394      4392      4400      4394      4395      4396      4394      4395      4397
      4395      4397      4398      4395      4397      4399      4395      4397      4409
      4396      4395      4397      4397      4409      4410      4397      4409      4411
      4397      4409      4412      4398      4397      4399      4398      4397      4409
      4399      4397      4409      4400      4403      4404      4401      4400      4402
      4401      4400      4403      4402      4400      4403      4403      4404      4405
      4403      4404      4406      4404      4406      4407      4404      4406      4408
      4404      4406      4456      4405      4404      4406      4406      4456      4457
      4406      4456      4458      4406      4456      4459      4407      4406      4408
      4407      4406      4456      4408      4406      4456      4409      4412      4413
      4409      4412      4414      4409      4412      4415      4410      4409      4411
      4410      4409      4412      4411      4409      4412      4412      4415      4416
      4412      4415      4417      4412      4415      4418      4413      4412      4414
      4413      4412      4415      4414      4412      4415      4415      4418      4419
      4415      4418      4420      4415      4418      4421      4416      4415      4417
      4416      4415      4418      4417      4415      4418      4418      4421      4422
      4418      4421      4423      4418      4421      4424      4419      4418      4420
      4419      4418      4421      4420      4418      4421      4421      4424      4425
      4421      4424      4426      4421      4424      4427      4422      4421      4423
      4422      4421      4424      4423      4421      4424      4424      4427      4428
      4424      4427      4429      4425      4424      4426      4425      4424      4427
      4426      4424      4427      4427      4429      4430      4427      4429      4431
      4428      4427      4429      4429      4431      4432      4429      4431      4433
      4429      4431      4434      4430      4429      4431      4431      4434      4435
      4431      4434      4436      4431      4434      4437      4432      4431      4433
      4432      4431      4434      4433      4431      4434      4434      4437      4438
      4434      4437      4439      4434      4437      4440      4435      4434      4436
      4435      4434      4437      4436      4434      4437      4437      4440      4441
      4437      4440      4442      4437      4440      4443      4438      4437      4439
      4438      4437      4440      4439      4437      4440      4440      4443      4444
      4440      4443      4445      4440      4443      4446      4441      4440      4442
      4441      4440      4443      4442      4440      4443      4443      4446      4447
      4443      4446      4448      4443      4446      4449      4444      4443      4445
      4444      4443      4446      4445      4443      4446      4446      4449      4450
      4446      4449      4451      4446      4449      4452      4447      4446      4448
      4447      4446      4449      4448      4446      4449      4449      4452      4453
      4449      4452      4454      4449      4452      4455      4450      4449      4451
      4450      4449      4452      4451      4449      4452      4453      4452      4454
      4453      4452      4455      4454      4452      4455      4456      4459      4460
      4456      4459      4461      4456      4459      4462      4457      4456      4458
      4457      4456      4459      4458      4456      4459      4459      4462      4463
      4459      4462      4464      4459      4462      4465      4460      4459      4461
      4460      4459      4462      4461      4459      4462      4462      4465      4466
      4462      4465      4467      4462      4465      4468      4463      4462      4464
      4463      4462      4465      4464      4462      4465      4465      4468      4469
      4465      4468      4470      4465      4468      4471      4466      4465      4467
      4466      4465      4468      4467      4465      4468      4468      4471      4472
      4468      4471      4473      4468      4471      4474      4469      4468      4470
      4469      4468      4471      4470      4468      4471      4471      4474      4475
      4471      4474      4476      4472      4471      4473      4472      4471      4474
      4473      4471      4474      4474      4476      4477      4474      4476      4478
      4475      4474      4476      4476      4478      4479      4476      4478      4480
      4476      4478      4481      4477      4476      4478      4478      4481      4482
      4478      4481      4483      4478      4481      4484      4479      4478      4480
      4479      4478      4481      4480      4478      4481      4481      4484      4485
      4481      4484      4486      4481      4484      4487      4482      4481      4483
      4482      4481      4484      4483      4481      4484      4484      4487      4488
      4484      4487      4489      4484      4487      4490      4485      4484      4486
      4485      4484      4487      4486      4484      4487      4487      4490      4491
      4487      4490      4492      4487      4490      4493      4488      4487      4489
      4488      4487      4490      4489      4487      4490      4490      4493      4494
      4490      4493      4495      4490      4493      4496      4491      4490      4492
      4491      4490      4493      4492      4490      4493      4493      4496      4497
      4493      4496      4498      4493      4496      4499      4494      4493      4495
      4494      4493      4496      4495      4493      4496      4496      4499      4500
      4496      4499      4501      4496      4499      4502      4497      4496      4498
      4497      4496      4499      4498      4496      4499      4500      4499      4501
      4500      4499      4502      4501      4499      4502      4503      4504      4505
      4503      4504      4506      4503      4504      4519      4503      4507      4508
      4503      4507      4509      4503      4507      4510      4503      4511      4512
      4503      4511      4513      4503      4511      4514      4503      4515      4516
      4503      4515      4517      4503      4515      4518      4504      4503      4507
      4504      4503      4511      4504      4503      4515      4504      4519      4520
      4504      4519      4521      4504      4519      4525      4505      4504      4506
      4505      4504      4519      4506      4504      4519      4507      4503      4511
      4507      4503      4515      4508      4507      4509      4508      4507      4510
      4509      4507      4510      4511      4503      4515      4512      4511      4513
      4512      4511      4514      4513      4511      4514      4516      4515      4517
      4516      4515      4518      4517      4515      4518      4519      4525      4522
      4520      4519      4521      4520      4519      4525      4521      4519      4525
      4522      4526      4527      4523      4522      4524      4523      4522      4525
      4523      4522      4526      4524      4522      4525      4524      4522      4526
      4525      4522      4526      4526      4527      4528      4526      4527      4529
      4526      4527      4530      4527      4530      4531      4527      4530      4532
      4527      4530      4538      4528      4527      4529      4528      4527      4530
      4529      4527      4530      4530      4532      4533      4530      4538      4539
      4530      4538      4540      4530      4538      4541      4531      4530      4532
      4531      4530      4538      4532      4530      4538      4532      4533      4534
      4532      4533      4535      4533      4535      4536      4533      4535      4537
      4533      4535      4547      4534      4533      4535      4535      4547      4548
      4535      4547      4549      4535      4547      4550      4536      4535      4537
      4536      4535      4547      4537      4535      4547      4538      4541      4542
      4539      4538      4540      4539      4538      4541      4540      4538      4541
      4541      4542      4543      4541      4542      4544      4542      4544      4545
      4542      4544      4546      4542      4544      4594      4543      4542      4544
      4544      4594      4595      4544      4594      4596      4544      4594      4597
      4545      4544      4546      4545      4544      4594      4546      4544      4594
      4547      4550      4551      4547      4550      4552      4547      4550      4553
      4548      4547      4549      4548      4547      4550      4549      4547      4550
      4550      4553      4554      4550      4553      4555      4550      4553      4556
      4551      4550      4552      4551      4550      4553      4552      4550      4553
      4553      4556      4557      4553      4556      4558      4553      4556      4559
      4554      4553      4555      4554      4553      4556      4555      4553      4556
      4556      4559      4560      4556      4559      4561      4556      4559      4562
      4557      4556      4558      4557      4556      4559      4558      4556      4559
      4559      4562      4563      4559      4562      4564      4559      4562      4565
      4560      4559      4561      4560      4559      4562      4561      4559      4562
      4562      4565      4566      4562      4565      4567      4563      4562      4564
      4563      4562      4565      4564      4562      4565      4565      4567      4568
      4565      4567      4569      4566      4565      4567      4567      4569      4570
      4567      4569      4571      4567      4569      4572      4568      4567      4569
      4569      4572      4573      4569      4572      4574      4569      4572      4575
      4570      4569      4571      4570      4569      4572      4571      4569      4572
      4572      4575      4576      4572      4575      4577      4572      4575      4578
      4573      4572      4574      4573      4572      4575      4574      4572      4575
      4575      4578      4579      4575      4578      4580      4575      4578      4581
      4576      4575      4577      4576      4575      4578      4577      4575      4578
      4578      4581      4582      4578      4581      4583      4578      4581      4584
      4579      4578      4580      4579      4578      4581      4580      4578      4581
      4581      4584      4585      4581      4584      4586      4581      4584      4587
      4582      4581      4583      4582      4581      4584      4583      4581      4584
      4584      4587      4588      4584      4587      4589      4584      4587      4590
      4585      4584      4586      4585      4584      4587      4586      4584      4587
      4587      4590      4591      4587      4590      4592      4587      4590      4593
      4588      4587      4589      4588      4587      4590      4589      4587      4590
      4591      4590      4592      4591      4590      4593      4592      4590      4593
      4594      4597      4598      4594      4597      4599      4594      4597      4600
      4595      4594      4596      4595      4594      4597      4596      4594      4597
      4597      4600      4601      4597      4600      4602      4597      4600      4603
      4598      4597      4599      4598      4597      4600      4599      4597      4600
      4600      4603      4604      4600      4603      4605      4600      4603      4606
      4601      4600      4602      4601      4600      4603      4602      4600      4603
      4603      4606      4607      4603      4606      4608      4603      4606      4609
      4604      4603      4605      4604      4603      4606      4605      4603      4606
      4606      4609      4610      4606      4609      4611      4606      4609      4612
      4607      4606      4608      4607      4606      4609      4608      4606      4609
      4609      4612      4613      4609      4612      4614      4610      4609      4611
      4610      4609      4612      4611      4609      4612      4612      4614      4615
      4612      4614      4616      4613      4612      4614      4614      4616      4617
      4614      4616      4618      4614      4616      4619      4615      4614      4616
      4616      4619      4620      4616      4619      4621      4616      4619      4622
      4617      4616      4618      4617      4616      4619      4618      4616      4619
      4619      4622      4623      4619      4622      4624      4619      4622      4625
      4620      4619      4621      4620      4619      4622      4621      4619      4622
      4622      4625      4626      4622      4625      4627      4622      4625      4628
      4623      4622      4624      4623      4622      4625      4624      4622      4625
      4625      4628      4629      4625      4628      4630      4625      4628      4631
      4626      4625      4627      4626      4625      4628      4627      4625      4628
      4628      4631      4632      4628      4631      4633      4628      4631      4634
      4629      4628      4630      4629      4628      4631      4630      4628      4631
      4631      4634      4635      4631      4634      4636      4631      4634      4637
      4632      4631      4633      4632      4631      4634      4633      4631      4634
      4634      4637      4638      4634      4637      4639      4634      4637      4640
      4635      4634      4636      4635      4634      4637      4636      4634      4637
      4638      4637      4639      4638      4637      4640      4639      4637      4640
      4641      4642      4643      4641      4642      4644      4641      4642      4657
      4641      4645      4646      4641      4645      4647      4641      4645      4648
      4641      4649      4650      4641      4649      4651      4641      4649      4652
      4641      4653      4654      4641      4653      4655      4641      4653      4656
      4642      4641      4645      4642      4641      4649      4642      4641      4653
      4642      4657      4658      4642      4657      4659      4642      4657      4663
      4643      4642      4644      4643      4642      4657      4644      4642      4657
      4645      4641      4649      4645      4641      4653      4646      4645      4647
      4646      4645      4648      4647      4645      4648      4649      4641      4653
      4650      4649      4651      4650      4649      4652      4651      4649      4652
      4654      4653      4655      4654      4653      4656      4655      4653      4656
      4657      4663      4660      4658      4657      4659      4658      4657      4663
      4659      4657      4663      4660      4664      4665      4661      4660      4662
      4661      4660      4663      4661      4660      4664      4662      4660      4663
      4662      4660      4664      4663      4660      4664      4664      4665      4666
      4664      4665      4667      4664      4665      4668      4665      4668      4669
      4665      4668      4670      4665      4668      4676      4666      4665      4667
      4666      4665      4668      4667      4665      4668      4668      4670      4671
      4668      4676      4677      4668      4676      4678      4668      4676      4679
      4669      4668      4670      4669      4668      4676      4670      4668      4676
      4670      4671      4672      4670      4671      4673      4671      4673      4674
      4671      4673      4675      4671      4673      4685      4672      4671      4673
      4673      4685      4686      4673      4685      4687      4673      4685      4688
      4674      4673      4675      4674      4673      4685      4675      4673      4685
      4676      4679      4680      4677      4676      4678      4677      4676      4679
      4678      4676      4679      4679      4680      4681      4679      4680      4682
      4680      4682      4683      4680      4682      4684      4680      4682      4732
      4681      4680      4682      4682      4732      4733      4682      4732      4734
      4682      4732      4735      4683      4682      4684      4683      4682      4732
      4684      4682      4732      4685      4688      4689      4685      4688      4690
      4685      4688      4691      4686      4685      4687      4686      4685      4688
      4687      4685      4688      4688      4691      4692      4688      4691      4693
      4688      4691      4694      4689      4688      4690      4689      4688      4691
      4690      4688      4691      4691      4694      4695      4691      4694      4696
      4691      4694      4697      4692      4691      4693      4692      4691      4694
      4693      4691      4694      4694      4697      4698      4694      4697      4699
      4694      4697      4700      4695      4694      4696      4695      4694      4697
      4696      4694      4697      4697      4700      4701      4697      4700      4702
      4697      4700      4703      4698      4697      4699      4698      4697      4700
      4699      4697      4700      4700      4703      4704      4700      4703      4705
      4701      4700      4702      4701      4700      4703      4702      4700      4703
      4703      4705      4706      4703      4705      4707      4704      4703      4705
      4705      4707      4708      4705      4707      4709      4705      4707      4710
      4706      4705      4707      4707      4710      4711      4707      4710      4712
      4707      4710      4713      4708      4707      4709      4708      4707      4710
      4709      4707      4710      4710      4713      4714      4710      4713      4715
      4710      4713      4716      4711      4710      4712      4711      4710      4713
      4712      4710      4713      4713      4716      4717      4713      4716      4718
      4713      4716      4719      4714      4713      4715      4714      4713      4716
      4715      4713      4716      4716      4719      4720      4716      4719      4721
      4716      4719      4722      4717      4716      4718      4717      4716      4719
      4718      4716      4719      4719      4722      4723      4719      4722      4724
      4719      4722      4725      4720      4719      4721      4720      4719      4722
      4721      4719      4722      4722      4725      4726      4722      4725      4727
      4722      4725      4728      4723      4722      4724      4723      4722      4725
      4724      4722      4725      4725      4728      4729      4725      4728      4730
      4725      4728      4731      4726      4725      4727      4726      4725      4728
      4727      4725      4728      4729      4728      4730      4729      4728      4731
      4730      4728      4731      4732      4735      4736      4732      4735      4737
      4732      4735      4738      4733      4732      4734      4733      4732      4735
      4734      4732      4735      4735      4738      4739      4735      4738      4740
      4735      4738      4741      4736      4735      4737      4736      4735      4738
      4737      4735      4738      4738      4741      4742      4738      4741      4743
      4738      4741      4744      4739      4738      4740      4739      4738      4741
      4740      4738      4741      4741      4744      4745      4741      4744      4746
      4741      4744      4747      4742      4741      4743      4742      4741      4744
      4743      4741      4744      4744      4747      4748      4744      4747      4749
      4744      4747      4750      4745      4744      4746      4745      4744      4747
      4746      4744      4747      4747      4750      4751      4747      4750      4752
      4748      4747      4749      4748      4747      4750      4749      4747      4750
      4750      4752      4753      4750      4752      4754      4751      4750      4752
      4752      4754      4755      4752      4754      4756      4752      4754      4757
      4753      4752      4754      4754      4757      4758      4754      4757      4759
      4754      4757      4760      4755      4754      4756      4755      4754      4757
      4756      4754      4757      4757      4760      4761      4757      4760      4762
      4757      4760      4763      4758      4757      4759      4758      4757      4760
      4759      4757      4760      4760      4763      4764      4760      4763      4765
      4760      4763      4766      4761      4760      4762      4761      4760      4763
      4762      4760      4763      4763      4766      4767      4763      4766      4768
      4763      4766      4769      4764      4763      4765      4764      4763      4766
      4765      4763      4766      4766      4769      4770      4766      4769      4771
      4766      4769      4772      4767      4766      4768      4767      4766      4769
      4768      4766      4769      4769      4772      4773      4769      4772      4774
      4769      4772      4775      4770      4769      4771      4770      4769      4772
      4771      4769      4772      4772      4775      4776      4772      4775      4777
      4772      4775      4778      4773      4772      4774      4773      4772      4775
      4774      4772      4775      4776      4775      4777      4776      4775      4778
      4777      4775      4778      4779      4780      4781      4779      4780      4782
      4779      4780      4795      4779      4783      4784      4779      4783      4785
      4779      4783      4786      4779      4787      4788      4779      4787      4789
      4779      4787      4790      4779      4791      4792      4779      4791      4793
      4779      4791      4794      4780      4779      4783      4780      4779      4787
      4780      4779      4791      4780      4795      4796      4780      4795      4797
      4780      4795      4801      4781      4780      4782      4781      4780      4795
      4782      4780      4795      4783      4779      4787      4783      4779      4791
      4784      4783      4785      4784      4783      4786      4785      4783      4786
      4787      4779      4791      4788      4787      4789      4788      4787      4790
      4789      4787      4790      4792      4791      4793      4792      4791      4794
      4793      4791      4794      4795      4801      4798      4796      4795      4797
      4796      4795      4801      4797      4795      4801      4798      4802      4803
      4799      4798      4800      4799      4798      4801      4799      4798      4802
      4800      4798      4801      4800      4798      4802      4801      4798      4802
      4802      4803      4804      4802      4803      4805      4802      4803      4806
      4803      4806      4807      4803      4806      4808      4803      4806      4814
      4804      4803      4805      4804      4803      4806      4805      4803      4806
      4806      4808      4809      4806      4814      4815      4806      4814      4816
      4806      4814      4817      4807      4806      4808      4807      4806      4814
      4808      4806      4814      4808      4809      4810      4808      4809      4811
      4809      4811      4812      4809      4811      4813      4809      4811      4823
      4810      4809      4811      4811      4823      4824      4811      4823      4825
      4811      4823      4826      4812      4811      4813      4812      4811      4823
      4813      4811      4823      4814      4817      4818      4815      4814      4816
      4815      4814      4817      4816      4814      4817      4817      4818      4819
      4817      4818      4820      4818      4820      4821      4818      4820      4822
      4818      4820      4870      4819      4818      4820      4820      4870      4871
      4820      4870      4872      4820      4870      4873      4821      4820      4822
      4821      4820      4870      4822      4820      4870      4823      4826      4827
      4823      4826      4828      4823      4826      4829      4824      4823      4825
      4824      4823      4826      4825      4823      4826      4826      4829      4830
      4826      4829      4831      4826      4829      4832      4827      4826      4828
      4827      4826      4829      4828      4826      4829      4829      4832      4833
      4829      4832      4834      4829      4832      4835      4830      4829      4831
      4830      4829      4832      4831      4829      4832      4832      4835      4836
      4832      4835      4837      4832      4835      4838      4833      4832      4834
      4833      4832      4835      4834      4832      4835      4835      4838      4839
      4835      4838      4840      4835      4838      4841      4836      4835      4837
      4836      4835      4838      4837      4835      4838      4838      4841      4842
      4838      4841      4843      4839      4838      4840      4839      4838      4841
      4840      4838      4841      4841      4843      4844      4841      4843      4845
      4842      4841      4843      4843      4845      4846      4843      4845      4847
      4843      4845      4848      4844      4843      4845      4845      4848      4849
      4845      4848      4850      4845      4848      4851      4846      4845      4847
      4846      4845      4848      4847      4845      4848      4848      4851      4852
      4848      4851      4853      4848      4851      4854      4849      4848      4850
      4849      4848      4851      4850      4848      4851      4851      4854      4855
      4851      4854      4856      4851      4854      4857      4852      4851      4853
      4852      4851      4854      4853      4851      4854      4854      4857      4858
      4854      4857      4859      4854      4857      4860      4855      4854      4856
      4855      4854      4857      4856      4854      4857      4857      4860      4861
      4857      4860      4862      4857      4860      4863      4858      4857      4859
      4858      4857      4860      4859      4857      4860      4860      4863      4864
      4860      4863      4865      4860      4863      4866      4861      4860      4862
      4861      4860      4863      4862      4860      4863      4863      4866      4867
      4863      4866      4868      4863      4866      4869      4864      4863      4865
      4864      4863      4866      4865      4863      4866      4867      4866      4868
      4867      4866      4869      4868      4866      4869      4870      4873      4874
      4870      4873      4875      4870      4873      4876      4871      4870      4872
      4871      4870      4873      4872      4870      4873      4873      4876      4877
      4873      4876      4878      4873      4876      4879      4874      4873      4875
      4874      4873      4876      4875      4873      4876      4876      4879      4880
      4876      4879      4881      4876      4879      4882      4877      4876      4878
      4877      4876      4879      4878      4876      4879      4879      4882      4883
      4879      4882      4884      4879      4882      4885      4880      4879      4881
      4880      4879      4882      4881      4879      4882      4882      4885      4886
      4882      4885      4887      4882      4885      4888      4883      4882      4884
      4883      4882      4885      4884      4882      4885      4885      4888      4889
      4885      4888      4890      4886      4885      4887      4886      4885      4888
      4887      4885      4888      4888      4890      4891      4888      4890      4892
      4889      4888      4890      4890      4892      4893      4890      4892      4894
      4890      4892      4895      4891      4890      4892      4892      4895      4896
      4892      4895      4897      4892      4895      4898      4893      4892      4894
      4893      4892      4895      4894      4892      4895      4895      4898      4899
      4895      4898      4900      4895      4898      4901      4896      4895      4897
      4896      4895      4898      4897      4895      4898      4898      4901      4902
      4898      4901      4903      4898      4901      4904      4899      4898      4900
      4899      4898      4901      4900      4898      4901      4901      4904      4905
      4901      4904      4906      4901      4904      4907      4902      4901      4903
      4902      4901      4904      4903      4901      4904      4904      4907      4908
      4904      4907      4909      4904      4907      4910      4905      4904      4906
      4905      4904      4907      4906      4904      4907      4907      4910      4911
      4907      4910      4912      4907      4910      4913      4908      4907      4909
      4908      4907      4910      4909      4907      4910      4910      4913      4914
      4910      4913      4915      4910      4913      4916      4911      4910      4912
      4911      4910      4913      4912      4910      4913      4914      4913      4915
      4914      4913      4916      4915      4913      4916      4917      4918      4919
      4917      4918      4920      4917      4918      4933      4917      4921      4922
      4917      4921      4923      4917      4921      4924      4917      4925      4926
      4917      4925      4927      4917      4925      4928      4917      4929      4930
      4917      4929      4931      4917      4929      4932      4918      4917      4921
      4918      4917      4925      4918      4917      4929      4918      4933      4934
      4918      4933      4935      4918      4933      4939      4919      4918      4920
      4919      4918      4933      4920      4918      4933      4921      4917      4925
      4921      4917      4929      4922      4921      4923      4922      4921      4924
      4923      4921      4924      4925      4917      4929      4926      4925      4927
      4926      4925      4928      4927      4925      4928      4930      4929      4931
      4930      4929      4932      4931      4929      4932      4933      4939      4936
      4934      4933      4935      4934      4933      4939      4935      4933      4939
      4936      4940      4941      4937      4936      4938      4937      4936      4939
      4937      4936      4940      4938      4936      4939      4938      4936      4940
      4939      4936      4940      4940      4941      4942      4940      4941      4943
      4940      4941      4944      4941      4944      4945      4941      4944      4946
      4941      4944      4952      4942      4941      4943      4942      4941      4944
      4943      4941      4944      4944      4946      4947      4944      4952      4953
      4944      4952      4954      4944      4952      4955      4945      4944      4946
      4945      4944      4952      4946      4944      4952      4946      4947      4948
      4946      4947      4949      4947      4949      4950      4947      4949      4951
      4947      4949      4961      4948      4947      4949      4949      4961      4962
      4949      4961      4963      4949      4961      4964      4950      4949      4951
      4950      4949      4961      4951      4949      4961      4952      4955      4956
      4953      4952      4954      4953      4952      4955      4954      4952      4955
      4955      4956      4957      4955      4956      4958      4956      4958      4959
      4956      4958      4960      4956      4958      5008      4957      4956      4958
      4958      5008      5009      4958      5008      5010      4958      5008      5011
      4959      4958      4960      4959      4958      5008      4960      4958      5008
      4961      4964      4965      4961      4964      4966      4961      4964      4967
      4962      4961      4963      4962      4961      4964      4963      4961      4964
      4964      4967      4968      4964      4967      4969      4964      4967      4970
      4965      4964      4966      4965      4964      4967      4966      4964      4967
      4967      4970      4971      4967      4970      4972      4967      4970      4973
      4968      4967      4969      4968      4967      4970      4969      4967      4970
      4970      4973      4974      4970      4973      4975      4970      4973      4976
      4971      4970      4972      4971      4970      4973      4972      4970      4973
      4973      4976      4977      4973      4976      4978      4973      4976      4979
      4974      4973      4975      4974      4973      4976      4975      4973      4976
      4976      4979      4980      4976      4979      4981      4977      4976      4978
      4977      4976      4979      4978      4976      4979      4979      4981      4982
      4979      4981      4983      4980      4979      4981      4981      4983      4984
      4981      4983      4985      4981      4983      4986      4982      4981      4983
      4983      4986      4987      4983      4986      4988      4983      4986      4989
      4984      4983      4985      4984      4983      4986      4985      4983      4986
      4986      4989      4990      4986      4989      4991      4986      4989      4992
      4987      4986      4988      4987      4986      4989      4988      4986      4989
      4989      4992      4993      4989      4992      4994      4989      4992      4995
      4990      4989      4991      4990      4989      4992      4991      4989      4992
      4992      4995      4996      4992      4995      4997      4992      4995      4998
      4993      4992      4994      4993      4992      4995      4994      4992      4995
      4995      4998      4999      4995      4998      5000      4995      4998      5001
      4996      4995      4997      4996      4995      4998      4997      4995      4998
      4998      5001      5002      4998      5001      5003      4998      5001      5004
      4999      4998      5000      4999      4998      5001      5000      4998      5001
      5001      5004      5005      5001      5004      5006      5001      5004      5007
      5002      5001      5003      5002      5001      5004      5003      5001      5004
      5005      5004      5006      5005      5004      5007      5006      5004      5007
      5008      5011      5012      5008      5011      5013      5008      5011      5014
      5009      5008      5010      5009      5008      5011      5010      5008      5011
      5011      5014      5015      5011      5014      5016      5011      5014      5017
      5012      5011      5013      5012      5011      5014      5013      5011      5014
      5014      5017      5018      5014      5017      5019      5014      5017      5020
      5015      5014      5016      5015      5014      5017      5016      5014      5017
      5017      5020      5021      5017      5020      5022      5017      5020      5023
      5018      5017      5019      5018      5017      5020      5019      5017      5020
      5020      5023      5024      5020      5023      5025      5020      5023      5026
      5021      5020      5022      5021      5020      5023      5022      5020      5023
      5023      5026      5027      5023      5026      5028      5024      5023      5025
      5024      5023      5026      5025      5023      5026      5026      5028      5029
      5026      5028      5030      5027      5026      5028      5028      5030      5031
      5028      5030      5032      5028      5030      5033      5029      5028      5030
      5030      5033      5034      5030      5033      5035      5030      5033      5036
      5031      5030      5032      5031      5030      5033      5032      5030      5033
      5033      5036      5037      5033      5036      5038      5033      5036      5039
      5034      5033      5035      5034      5033      5036      5035      5033      5036
      5036      5039      5040      5036      5039      5041      5036      5039      5042
      5037      5036      5038      5037      5036      5039      5038      5036      5039
      5039      5042      5043      5039      5042      5044      5039      5042      5045
      5040      5039      5041      5040      5039      5042      5041      5039      5042
      5042      5045      5046      5042      5045      5047      5042      5045      5048
      5043      5042      5044      5043      5042      5045      5044      5042      5045
      5045      5048      5049      5045      5048      5050      5045      5048      5051
      5046      5045      5047      5046      5045      5048      5047      5045      5048
      5048      5051      5052      5048      5051      5053      5048      5051      5054
      5049      5048      5050      5049      5048      5051      5050      5048      5051
      5052      5051      5053      5052      5051      5054      5053      5051      5054
      5055      5056      5057      5055      5056      5058      5055      5056      5071
      5055      5059      5060      5055      5059      5061      5055      5059      5062
      5055      5063      5064      5055      5063      5065      5055      5063      5066
      5055      5067      5068      5055      5067      5069      5055      5067      5070
      5056      5055      5059      5056      5055      5063      5056      5055      5067
      5056      5071      5072      5056      5071      5073      5056      5071      5077
      5057      5056      5058      5057      5056      5071      5058      5056      5071
      5059      5055      5063      5059      5055      5067      5060      5059      5061
      5060      5059      5062      5061      5059      5062      5063      5055      5067
      5064      5063      5065      5064      5063      5066      5065      5063      5066
      5068      5067      5069      5068      5067      5070      5069      5067      5070
      5071      5077      5074      5072      5071      5073      5072      5071      5077
      5073      5071      5077      5074      5078      5079      5075      5074      5076
      5075      5074      5077      5075      5074      5078      5076      5074      5077
      5076      5074      5078      5077      5074      5078      5078      5079      5080
      5078      5079      5081      5078      5079      5082      5079      5082      5083
      5079      5082      5084      5079      5082      5090      5080      5079      5081
      5080      5079      5082      5081      5079      5082      5082      5084      5085
      5082      5090      5091      5082      5090      5092      5082      5090      5093
      5083      5082      5084      5083      5082      5090      5084      5082      5090
      5084      5085      5086      5084      5085      5087      5085      5087      5088
      5085      5087      5089      5085      5087      5099      5086      5085      5087
      5087      5099      5100      5087      5099      5101      5087      5099      5102
      5088      5087      5089      5088      5087      5099      5089      5087      5099
      5090      5093      5094      5091      5090      5092      5091      5090      5093
      5092      5090      5093      5093      5094      5095      5093      5094      5096
      5094      5096      5097      5094      5096      5098      5094      5096      5146
      5095      5094      5096      5096      5146      5147      5096      5146      5148
      5096      5146      5149      5097      5096      5098      5097      5096      5146
      5098      5096      5146      5099      5102      5103      5099      5102      5104
      5099      5102      5105      5100      5099      5101      5100      5099      5102
      5101      5099      5102      5102      5105      5106      5102      5105      5107
      5102      5105      5108      5103      5102      5104      5103      5102      5105
      5104      5102      5105      5105      5108      5109      5105      5108      5110
      5105      5108      5111      5106      5105      5107      5106      5105      5108
      5107      5105      5108      5108      5111      5112      5108      5111      5113
      5108      5111      5114      5109      5108      5110      5109      5108      5111
      5110      5108      5111      5111      5114      5115      5111      5114      5116
      5111      5114      5117      5112      5111      5113      5112      5111      5114
      5113      5111      5114      5114      5117      5118      5114      5117      5119
      5115      5114      5116      5115      5114      5117      5116      5114      5117
      5117      5119      5120      5117      5119      5121      5118      5117      5119
      5119      5121      5122      5119      5121      5123      5119      5121      5124
      5120      5119      5121      5121      5124      5125      5121      5124      5126
      5121      5124      5127      5122      5121      5123      5122      5121      5124
      5123      5121      5124      5124      5127      5128      5124      5127      5129
      5124      5127      5130      5125      5124      5126      5125      5124      5127
      5126      5124      5127      5127      5130      5131      5127      5130      5132
      5127      5130      5133      5128      5127      5129      5128      5127      5130
      5129      5127      5130      5130      5133      5134      5130      5133      5135
      5130      5133      5136      5131      5130      5132      5131      5130      5133
      5132      5130      5133      5133      5136      5137      5133      5136      5138
      5133      5136      5139      5134      5133      5135      5134      5133      5136
      5135      5133      5136      5136      5139      5140      5136      5139      5141
      5136      5139      5142      5137      5136      5138      5137      5136      5139
      5138      5136      5139      5139      5142      5143      5139      5142      5144
      5139      5142      5145      5140      5139      5141      5140      5139      5142
      5141      5139      5142      5143      5142      5144      5143      5142      5145
      5144      5142      5145      5146      5149      5150      5146      5149      5151
      5146      5149      5152      5147      5146      5148      5147      5146      5149
      5148      5146      5149      5149      5152      5153      5149      5152      5154
      5149      5152      5155      5150      5149      5151      5150      5149      5152
      5151      5149      5152      5152      5155      5156      5152      5155      5157
      5152      5155      5158      5153      5152      5154      5153      5152      5155
      5154      5152      5155      5155      5158      5159      5155      5158      5160
      5155      5158      5161      5156      5155      5157      5156      5155      5158
      5157      5155      5158      5158      5161      5162      5158      5161      5163
      5158      5161      5164      5159      5158      5160      5159      5158      5161
      5160      5158      5161      5161      5164      5165      5161      5164      5166
      5162      5161      5163      5162      5161      5164      5163      5161      5164
      5164      5166      5167      5164      5166      5168      5165      5164      5166
      5166      5168      5169      5166      5168      5170      5166      5168      5171
      5167      5166      5168      5168      5171      5172      5168      5171      5173
      5168      5171      5174      5169      5168      5170      5169      5168      5171
      5170      5168      5171      5171      5174      5175      5171      5174      5176
      5171      5174      5177      5172      5171      5173      5172      5171      5174
      5173      5171      5174      5174      5177      5178      5174      5177      5179
      5174      5177      5180      5175      5174      5176      5175      5174      5177
      5176      5174      5177      5177      5180      5181      5177      5180      5182
      5177      5180      5183      5178      5177      5179      5178      5177      5180
      5179      5177      5180      5180      5183      5184      5180      5183      5185
      5180      5183      5186      5181      5180      5182      5181      5180      5183
      5182      5180      5183      5183      5186      5187      5183      5186      5188
      5183      5186      5189      5184      5183      5185      5184      5183      5186
      5185      5183      5186      5186      5189      5190      5186      5189      5191
      5186      5189      5192      5187      5186      5188      5187      5186      5189
      5188      5186      5189      5190      5189      5191      5190      5189      5192
      5191      5189      5192      5193      5194      5195      5193      5194      5196
      5193      5194      5209      5193      5197      5198      5193      5197      5199
      5193      5197      5200      5193      5201      5202      5193      5201      5203
      5193      5201      5204      5193      5205      5206      5193      5205      5207
      5193      5205      5208      5194      5193      5197      5194      5193      5201
      5194      5193      5205      5194      5209      5210      5194      5209      5211
      5194      5209      5215      5195      5194      5196      5195      5194      5209
      5196      5194      5209      5197      5193      5201      5197      5193      5205
      5198      5197      5199      5198      5197      5200      5199      5197      5200
      5201      5193      5205      5202      5201      5203      5202      5201      5204
      5203      5201      5204      5206      5205      5207      5206      5205      5208
      5207      5205      5208      5209      5215      5212      5210      5209      5211
      5210      5209      5215      5211      5209      5215      5212      5216      5217
      5213      5212      5214      5213      5212      5215      5213      5212      5216
      5214      5212      5215      5214      5212      5216      5215      5212      5216
      5216      5217      5218      5216      5217      5219      5216      5217      5220
      5217      5220      5221      5217      5220      5222      5217      5220      5228
      5218      5217      5219      5218      5217      5220      5219      5217      5220
      5220      5222      5223      5220      5228      5229      5220      5228      5230
      5220      5228      5231      5221      5220      5222      5221      5220      5228
      5222      5220      5228      5222      5223      5224      5222      5223      5225
      5223      5225      5226      5223      5225      5227      5223      5225      5237
      5224      5223      5225      5225      5237      5238      5225      5237      5239
      5225      5237      5240      5226      5225      5227      5226      5225      5237
      5227      5225      5237      5228      5231      5232      5229      5228      5230
      5229      5228      5231      5230      5228      5231      5231      5232      5233
      5231      5232      5234      5232      5234      5235      5232      5234      5236
      5232      5234      5284      5233      5232      5234      5234      5284      5285
      5234      5284      5286      5234      5284      5287      5235      5234      5236
      5235      5234      5284      5236      5234      5284      5237      5240      5241
      5237      5240      5242      5237      5240      5243      5238      5237      5239
      5238      5237      5240      5239      5237      5240      5240      5243      5244
      5240      5243      5245      5240      5243      5246      5241      5240      5242
      5241      5240      5243      5242      5240      5243      5243      5246      5247
      5243      5246      5248      5243      5246      5249      5244      5243      5245
      5244      5243      5246      5245      5243      5246      5246      5249      5250
      5246      5249      5251      5246      5249      5252      5247      5246      5248
      5247      5246      5249      5248      5246      5249      5249      5252      5253
      5249      5252      5254      5249      5252      5255      5250      5249      5251
      5250      5249      5252      5251      5249      5252      5252      5255      5256
      5252      5255      5257      5253      5252      5254      5253      5252      5255
      5254      5252      5255      5255      5257      5258      5255      5257      5259
      5256      5255      5257      5257      5259      5260      5257      5259      5261
      5257      5259      5262      5258      5257      5259      5259      5262      5263
      5259      5262      5264      5259      5262      5265      5260      5259      5261
      5260      5259      5262      5261      5259      5262      5262      5265      5266
      5262      5265      5267      5262      5265      5268      5263      5262      5264
      5263      5262      5265      5264      5262      5265      5265      5268      5269
      5265      5268      5270      5265      5268      5271      5266      5265      5267
      5266      5265      5268      5267      5265      5268      5268      5271      5272
      5268      5271      5273      5268      5271      5274      5269      5268      5270
      5269      5268      5271      5270      5268      5271      5271      5274      5275
      5271      5274      5276      5271      5274      5277      5272      5271      5273
      5272      5271      5274      5273      5271      5274      5274      5277      5278
      5274      5277      5279      5274      5277      5280      5275      5274      5276
      5275      5274      5277      5276      5274      5277      5277      5280      5281
      5277      5280      5282      5277      5280      5283      5278      5277      5279
      5278      5277      5280      5279      5277      5280      5281      5280      5282
      5281      5280      5283      5282      5280      5283      5284      5287      5288
      5284      5287      5289      5284      5287      5290      5285      5284      5286
      5285      5284      5287      5286      5284      5287      5287      5290      5291
      5287      5290      5292      5287      5290      5293      5288      5287      5289
      5288      5287      5290      5289      5287      5290      5290      5293      5294
      5290      5293      5295      5290      5293      5296      5291      5290      5292
      5291      5290      5293      5292      5290      5293      5293      5296      5297
      5293      5296      5298      5293      5296      5299      5294      5293      5295
      5294      5293      5296      5295      5293      5296      5296      5299      5300
      5296      5299      5301      5296      5299      5302      5297      5296      5298
      5297      5296      5299      5298      5296      5299      5299      5302      5303
      5299      5302      5304      5300      5299      5301      5300      5299      5302
      5301      5299      5302      5302      5304      5305      5302      5304      5306
      5303      5302      5304      5304      5306      5307      5304      5306      5308
      5304      5306      5309      5305      5304      5306      5306      5309      5310
      5306      5309      5311      5306      5309      5312      5307      5306      5308
      5307      5306      5309      5308      5306      5309      5309      5312      5313
      5309      5312      5314      5309      5312      5315      5310      5309      5311
      5310      5309      5312      5311      5309      5312      5312      5315      5316
      5312      5315      5317      5312      5315      5318      5313      5312      5314
      5313      5312      5315      5314      5312      5315      5315      5318      5319
      5315      5318      5320      5315      5318      5321      5316      5315      5317
      5316      5315      5318      5317      5315      5318      5318      5321      5322
      5318      5321      5323      5318      5321      5324      5319      5318      5320
      5319      5318      5321      5320      5318      5321      5321      5324      5325
      5321      5324      5326      5321      5324      5327      5322      5321      5323
      5322      5321      5324      5323      5321      5324      5324      5327      5328
      5324      5327      5329      5324      5327      5330      5325      5324      5326
      5325      5324      5327      5326      5324      5327      5328      5327      5329
      5328      5327      5330      5329      5327      5330      5331      5332      5333
      5331      5332      5334      5331      5332      5347      5331      5335      5336
      5331      5335      5337      5331      5335      5338      5331      5339      5340
      5331      5339      5341      5331      5339      5342      5331      5343      5344
      5331      5343      5345      5331      5343      5346      5332      5331      5335
      5332      5331      5339      5332      5331      5343      5332      5347      5348
      5332      5347      5349      5332      5347      5353      5333      5332      5334
      5333      5332      5347      5334      5332      5347      5335      5331      5339
      5335      5331      5343      5336      5335      5337      5336      5335      5338
      5337      5335      5338      5339      5331      5343      5340      5339      5341
      5340      5339      5342      5341      5339      5342      5344      5343      5345
      5344      5343      5346      5345      5343      5346      5347      5353      5350
      5348      5347      5349      5348      5347      5353      5349      5347      5353
      5350      5354      5355      5351      5350      5352      5351      5350      5353
      5351      5350      5354      5352      5350      5353      5352      5350      5354
      5353      5350      5354      5354      5355      5356      5354      5355      5357
      5354      5355      5358      5355      5358      5359      5355      5358      5360
      5355      5358      5366      5356      5355      5357      5356      5355      5358
      5357      5355      5358      5358      5360      5361      5358      5366      5367
      5358      5366      5368      5358      5366      5369      5359      5358      5360
      5359      5358      5366      5360      5358      5366      5360      5361      5362
      5360      5361      5363      5361      5363      5364      5361      5363      5365
      5361      5363      5375      5362      5361      5363      5363      5375      5376
      5363      5375      5377      5363      5375      5378      5364      5363      5365
      5364      5363      5375      5365      5363      5375      5366      5369      5370
      5367      5366      5368      5367      5366      5369      5368      5366      5369
      5369      5370      5371      5369      5370      5372      5370      5372      5373
      5370      5372      5374      5370      5372      5422      5371      5370      5372
      5372      5422      5423      5372      5422      5424      5372      5422      5425
      5373      5372      5374      5373      5372      5422      5374      5372      5422
      5375      5378      5379      5375      5378      5380      5375      5378      5381
      5376      5375      5377      5376      5375      5378      5377      5375      5378
      5378      5381      5382      5378      5381      5383      5378      5381      5384
      5379      5378      5380      5379      5378      5381      5380      5378      5381
      5381      5384      5385      5381      5384      5386      5381      5384      5387
      5382      5381      5383      5382      5381      5384      5383      5381      5384
      5384      5387      5388      5384      5387      5389      5384      5387      5390
      5385      5384      5386      5385      5384      5387      5386      5384      5387
      5387      5390      5391      5387      5390      5392      5387      5390      5393
      5388      5387      5389      5388      5387      5390      5389      5387      5390
      5390      5393      5394      5390      5393      5395      5391      5390      5392
      5391      5390      5393      5392      5390      5393      5393      5395      5396
      5393      5395      5397      5394      5393      5395      5395      5397      5398
      5395      5397      5399      5395      5397      5400      5396      5395      5397
      5397      5400      5401      5397      5400      5402      5397      5400      5403
      5398      5397      5399      5398      5397      5400      5399      5397      5400
      5400      5403      5404      5400      5403      5405      5400      5403      5406
      5401      5400      5402      5401      5400      5403      5402      5400      5403
      5403      5406      5407      5403      5406      5408      5403      5406      5409
      5404      5403      5405      5404      5403      5406      5405      5403      5406
      5406      5409      5410      5406      5409      5411      5406      5409      5412
      5407      5406      5408      5407      5406      5409      5408      5406      5409
      5409      5412      5413      5409      5412      5414      5409      5412      5415
      5410      5409      5411      5410      5409      5412      5411      5409      5412
      5412      5415      5416      5412      5415      5417      5412      5415      5418
      5413      5412      5414      5413      5412      5415      5414      5412      5415
      5415      5418      5419      5415      5418      5420      5415      5418      5421
      5416      5415      5417      5416      5415      5418      5417      5415      5418
      5419      5418      5420      5419      5418      5421      5420      5418      5421
      5422      5425      5426      5422      5425      5427      5422      5425      5428
      5423      5422      5424      5423      5422      5425      5424      5422      5425
      5425      5428      5429      5425      5428      5430      5425      5428      5431
      5426      5425      5427      5426      5425      5428      5427      5425      5428
      5428      5431      5432      5428      5431      5433      5428      5431      5434
      5429      5428      5430      5429      5428      5431      5430      5428      5431
      5431      5434      5435      5431      5434      5436      5431      5434      5437
      5432      5431      5433      5432      5431      5434      5433      5431      5434
      5434      5437      5438      5434      5437      5439      5434      5437      5440
      5435      5434      5436      5435      5434      5437      5436      5434      5437
      5437      5440      5441      5437      5440      5442      5438      5437      5439
      5438      5437      5440      5439      5437      5440      5440      5442      5443
      5440      5442      5444      5441      5440      5442      5442      5444      5445
      5442      5444      5446      5442      5444      5447      5443      5442      5444
      5444      5447      5448      5444      5447      5449      5444      5447      5450
      5445      5444      5446      5445      5444      5447      5446      5444      5447
      5447      5450      5451      5447      5450      5452      5447      5450      5453
      5448      5447      5449      5448      5447      5450      5449      5447      5450
      5450      5453      5454      5450      5453      5455      5450      5453      5456
      5451      5450      5452      5451      5450      5453      5452      5450      5453
      5453      5456      5457      5453      5456      5458      5453      5456      5459
      5454      5453      5455      5454      5453      5456      5455      5453      5456
      5456      5459      5460      5456      5459      5461      5456      5459      5462
      5457      5456      5458      5457      5456      5459      5458      5456      5459
      5459      5462      5463      5459      5462      5464      5459      5462      5465
      5460      5459      5461      5460      5459      5462      5461      5459      5462
      5462      5465      5466      5462      5465      5467      5462      5465      5468
      5463      5462      5464      5463      5462      5465      5464      5462      5465
      5466      5465      5467      5466      5465      5468      5467      5465      5468
      5469      5470      5471      5469      5470      5472      5469      5470      5485
      5469      5473      5474      5469      5473      5475      5469      5473      5476
      5469      5477      5478      5469      5477      5479      5469      5477      5480
      5469      5481      5482      5469      5481      5483      5469      5481      5484
      5470      5469      5473      5470      5469      5477      5470      5469      5481
      5470      5485      5486      5470      5485      5487      5470      5485      5491
      5471      5470      5472      5471      5470      5485      5472      5470      5485
      5473      5469      5477      5473      5469      5481      5474      5473      5475
      5474      5473      5476      5475      5473      5476      5477      5469      5481
      5478      5477      5479      5478      5477      5480      5479      5477      5480
      5482      5481      5483      5482      5481      5484      5483      5481      5484
      5485      5491      5488      5486      5485      5487      5486      5485      5491
      5487      5485      5491      5488      5492      5493      5489      5488      5490
      5489      5488      5491      5489      5488      5492      5490      5488      5491
      5490      5488      5492      5491      5488      5492      5492      5493      5494
      5492      5493      5495      5492      5493      5496      5493      5496      5497
      5493      5496      5498      5493      5496      5504      5494      5493      5495
      5494      5493      5496      5495      5493      5496      5496      5498      5499
      5496      5504      5505      5496      5504      5506      5496      5504      5507
      5497      5496      5498      5497      5496      5504      5498      5496      5504
      5498      5499      5500      5498      5499      5501      5499      5501      5502
      5499      5501      5503      5499      5501      5513      5500      5499      5501
      5501      5513      5514      5501      5513      5515      5501      5513      5516
      5502      5501      5503      5502      5501      5513      5503      5501      5513
      5504      5507      5508      5505      5504      5506      5505      5504      5507
      5506      5504      5507      5507      5508      5509      5507      5508      5510
      5508      5510      5511      5508      5510      5512      5508      5510      5560
      5509      5508      5510      5510      5560      5561      5510      5560      5562
      5510      5560      5563      5511      5510      5512      5511      5510      5560
      5512      5510      5560      5513      5516      5517      5513      5516      5518
      5513      5516      5519      5514      5513      5515      5514      5513      5516
      5515      5513      5516      5516      5519      5520      5516      5519      5521
      5516      5519      5522      5517      5516      5518      5517      5516      5519
      5518      5516      5519      5519      5522      5523      5519      5522      5524
      5519      5522      5525      5520      5519      5521      5520      5519      5522
      5521      5519      5522      5522      5525      5526      5522      5525      5527
      5522      5525      5528      5523      5522      5524      5523      5522      5525
      5524      5522      5525      5525      5528      5529      5525      5528      5530
      5525      5528      5531      5526      5525      5527      5526      5525      5528
      5527      5525      5528      5528      5531      5532      5528      5531      5533
      5529      5528      5530      5529      5528      5531      5530      5528      5531
      5531      5533      5534      5531      5533      5535      5532      5531      5533
      5533      5535      5536      5533      5535      5537      5533      5535      5538
      5534      5533      5535      5535      5538      5539      5535      5538      5540
      5535      5538      5541      5536      5535      5537      5536      5535      5538
      5537      5535      5538      5538      5541      5542      5538      5541      5543
      5538      5541      5544      5539      5538      5540      5539      5538      5541
      5540      5538      5541      5541      5544      5545      5541      5544      5546
      5541      5544      5547      5542      5541      5543      5542      5541      5544
      5543      5541      5544      5544      5547      5548      5544      5547      5549
      5544      5547      5550      5545      5544      5546      5545      5544      5547
      5546      5544      5547      5547      5550      5551      5547      5550      5552
      5547      5550      5553      5548      5547      5549      5548      5547      5550
      5549      5547      5550      5550      5553      5554      5550      5553      5555
      5550      5553      5556      5551      5550      5552      5551      5550      5553
      5552      5550      5553      5553      5556      5557      5553      5556      5558
      5553      5556      5559      5554      5553      5555      5554      5553      5556
      5555      5553      5556      5557      5556      5558      5557      5556      5559
      5558      5556      5559      5560      5563      5564      5560      5563      5565
      5560      5563      5566      5561      5560      5562      5561      5560      5563
      5562      5560      5563      5563      5566      5567      5563      5566      5568
      5563      5566      5569      5564      5563      5565      5564      5563      5566
      5565      5563      5566      5566      5569      5570      5566      5569      5571
      5566      5569      5572      5567      5566      5568      5567      5566      5569
      5568      5566      5569      5569      5572      5573      5569      5572      5574
      5569      5572      5575      5570      5569      5571      5570      5569      5572
      5571      5569      5572      5572      5575      5576      5572      5575      5577
      5572      5575      5578      5573      5572      5574      5573      5572      5575
      5574      5572      5575      5575      5578      5579      5575      5578      5580
      5576      5575      5577      5576      5575      5578      5577      5575      5578
      5578      5580      5581      5578      5580      5582      5579      5578      5580
      5580      5582      5583      5580      5582      5584      5580      5582      5585
      5581      5580      5582      5582      5585      5586      5582      5585      5587
      5582      5585      5588      5583      5582      5584      5583      5582      5585
      5584      5582      5585      5585      5588      5589      5585      5588      5590
      5585      5588      5591      5586      5585      5587      5586      5585      5588
      5587      5585      5588      5588      5591      5592      5588      5591      5593
      5588      5591      5594      5589      5588      5590      5589      5588      5591
      5590      5588      5591      5591      5594      5595      5591      5594      5596
      5591      5594      5597      5592      5591      5593      5592      5591      5594
      5593      5591      5594      5594      5597      5598      5594      5597      5599
      5594      5597      5600      5595      5594      5596      5595      5594      5597
      5596      5594      5597      5597      5600      5601      5597      5600      5602
      5597      5600      5603      5598      5597      5599      5598      5597      5600
      5599      5597      5600      5600      5603      5604      5600      5603      5605
      5600      5603      5606      5601      5600      5602      5601      5600      5603
      5602      5600      5603      5604      5603      5605      5604      5603      5606
      5605      5603      5606      5607      5608      5609      5607      5608      5610
      5607      5608      5623      5607      5611      5612      5607      5611      5613
      5607      5611      5614      5607      5615      5616      5607      5615      5617
      5607      5615      5618      5607      5619      5620      5607      5619      5621
      5607      5619      5622      5608      5607      5611      5608      5607      5615
      5608      5607      5619      5608      5623      5624      5608      5623      5625
      5608      5623      5629      5609      5608      5610      5609      5608      5623
      5610      5608      5623      5611      5607      5615      5611      5607      5619
      5612      5611      5613      5612      5611      5614      5613      5611      5614
      5615      5607      5619      5616      5615      5617      5616      5615      5618
      5617      5615      5618      5620      5619      5621      5620      5619      5622
      5621      5619      5622      5623      5629      5626      5624      5623      5625
      5624      5623      5629      5625      5623      5629      5626      5630      5631
      5627      5626      5628      5627      5626      5629      5627      5626      5630
      5628      5626      5629      5628      5626      5630      5629      5626      5630
      5630      5631      5632      5630      5631      5633      5630      5631      5634
      5631      5634      5635      5631      5634      5636      5631      5634      5642
      5632      5631      5633      5632      5631      5634      5633      5631      5634
      5634      5636      5637      5634      5642      5643      5634      5642      5644
      5634      5642      5645      5635      5634      5636      5635      5634      5642
      5636      5634      5642      5636      5637      5638      5636      5637      5639
      5637      5639      5640      5637      5639      5641      5637      5639      5651
      5638      5637      5639      5639      5651      5652      5639      5651      5653
      5639      5651      5654      5640      5639      5641      5640      5639      5651
      5641      5639      5651      5642      5645      5646      5643      5642      5644
      5643      5642      5645      5644      5642      5645      5645      5646      5647
      5645      5646      5648      5646      5648      5649      5646      5648      5650
      5646      5648      5698      5647      5646      5648      5648      5698      5699
      5648      5698      5700      5648      5698      5701      5649      5648      5650
      5649      5648      5698      5650      5648      5698      5651      5654      5655
      5651      5654      5656      5651      5654      5657      5652      5651      5653
      5652      5651      5654      5653      5651      5654      5654      5657      5658
      5654      5657      5659      5654      5657      5660      5655      5654      5656
      5655      5654      5657      5656      5654      5657      5657      5660      5661
      5657      5660      5662      5657      5660      5663      5658      5657      5659
      5658      5657      5660      5659      5657      5660      5660      5663      5664
      5660      5663      5665      5660      5663      5666      5661      5660      5662
      5661      5660      5663      5662      5660      5663      5663      5666      5667
      5663      5666      5668      5663      5666      5669      5664      5663      5665
      5664      5663      5666      5665      5663      5666      5666      5669      5670
      5666      5669      5671      5667      5666      5668      5667      5666      5669
      5668      5666      5669      5669      5671      5672      5669      5671      5673
      5670      5669      5671      5671      5673      5674      5671      5673      5675
      5671      5673      5676      5672      5671      5673      5673      5676      5677
      5673      5676      5678      5673      5676      5679      5674      5673      5675
      5674      5673      5676      5675      5673      5676      5676      5679      5680
      5676      5679      5681      5676      5679      5682      5677      5676      5678
      5677      5676      5679      5678      5676      5679      5679      5682      5683
      5679      5682      5684      5679      5682      5685      5680      5679      5681
      5680      5679      5682      5681      5679      5682      5682      5685      5686
      5682      5685      5687      5682      5685      5688      5683      5682      5684
      5683      5682      5685      5684      5682      5685      5685      5688      5689
      5685      5688      5690      5685      5688      5691      5686      5685      5687
      5686      5685      5688      5687      5685      5688      5688      5691      5692
      5688      5691      5693      5688      5691      5694      5689      5688      5690
      5689      5688      5691      5690      5688      5691      5691      5694      5695
      5691      5694      5696      5691      5694      5697      5692      5691      5693
      5692      5691      5694      5693      5691      5694      5695      5694      5696
      5695      5694      5697      5696      5694      5697      5698      5701      5702
      5698      5701      5703      5698      5701      5704      5699      5698      5700
      5699      5698      5701      5700      5698      5701      5701      5704      5705
      5701      5704      5706      5701      5704      5707      5702      5701      5703
      5702      5701      5704      5703      5701      5704      5704      5707      5708
      5704      5707      5709      5704      5707      5710      5705      5704      5706
      5705      5704      5707      5706      5704      5707      5707      5710      5711
      5707      5710      5712      5707      5710      5713      5708      5707      5709
      5708      5707      5710      5709      5707      5710      5710      5713      5714
      5710      5713      5715      5710      5713      5716      5711      5710      5712
      5711      5710      5713      5712      5710      5713      5713      5716      5717
      5713      5716      5718      5714      5713      5715      5714      5713      5716
      5715      5713      5716      5716      5718      5719      5716      5718      5720
      5717      5716      5718      5718      5720      5721      5718      5720      5722
      5718      5720      5723      5719      5718      5720      5720      5723      5724
      5720      5723      5725      5720      5723      5726      5721      5720      5722
      5721      5720      5723      5722      5720      5723      5723      5726      5727
      5723      5726      5728      5723      5726      5729      5724      5723      5725
      5724      5723      5726      5725      5723      5726      5726      5729      5730
      5726      5729      5731      5726      5729      5732      5727      5726      5728
      5727      5726      5729      5728      5726      5729      5729      5732      5733
      5729      5732      5734      5729      5732      5735      5730      5729      5731
      5730      5729      5732      5731      5729      5732      5732      5735      5736
      5732      5735      5737      5732      5735      5738      5733      5732      5734
      5733      5732      5735      5734      5732      5735      5735      5738      5739
      5735      5738      5740      5735      5738      5741      5736      5735      5737
      5736      5735      5738      5737      5735      5738      5738      5741      5742
      5738      5741      5743      5738      5741      5744      5739      5738      5740
      5739      5738      5741      5740      5738      5741      5742      5741      5743
      5742      5741      5744      5743      5741      5744      5745      5746      5747
      5745      5746      5748      5745      5746      5761      5745      5749      5750
      5745      5749      5751      5745      5749      5752      5745      5753      5754
      5745      5753      5755      5745      5753      5756      5745      5757      5758
      5745      5757      5759      5745      5757      5760      5746      5745      5749
      5746      5745      5753      5746      5745      5757      5746      5761      5762
      5746      5761      5763      5746      5761      5767      5747      5746      5748
      5747      5746      5761      5748      5746      5761      5749      5745      5753
      5749      5745      5757      5750      5749      5751      5750      5749      5752
      5751      5749      5752      5753      5745      5757      5754      5753      5755
      5754      5753      5756      5755      5753      5756      5758      5757      5759
      5758      5757      5760      5759      5757      5760      5761      5767      5764
      5762      5761      5763      5762      5761      5767      5763      5761      5767
      5764      5768      5769      5765      5764      5766      5765      5764      5767
      5765      5764      5768      5766      5764      5767      5766      5764      5768
      5767      5764      5768      5768      5769      5770      5768      5769      5771
      5768      5769      5772      5769      5772      5773      5769      5772      5774
      5769      5772      5780      5770      5769      5771      5770      5769      5772
      5771      5769      5772      5772      5774      5775      5772      5780      5781
      5772      5780      5782      5772      5780      5783      5773      5772      5774
      5773      5772      5780      5774      5772      5780      5774      5775      5776
      5774      5775      5777      5775      5777      5778      5775      5777      5779
      5775      5777      5789      5776      5775      5777      5777      5789      5790
      5777      5789      5791      5777      5789      5792      5778      5777      5779
      5778      5777      5789      5779      5777      5789      5780      5783      5784
      5781      5780      5782      5781      5780      5783      5782      5780      5783
      5783      5784      5785      5783      5784      5786      5784      5786      5787
      5784      5786      5788      5784      5786      5836      5785      5784      5786
      5786      5836      5837      5786      5836      5838      5786      5836      5839
      5787      5786      5788      5787      5786      5836      5788      5786      5836
      5789      5792      5793      5789      5792      5794      5789      5792      5795
      5790      5789      5791      5790      5789      5792      5791      5789      5792
      5792      5795      5796      5792      5795      5797      5792      5795      5798
      5793      5792      5794      5793      5792      5795      5794      5792      5795
      5795      5798      5799      5795      5798      5800      5795      5798      5801
      5796      5795      5797      5796      5795      5798      5797      5795      5798
      5798      5801      5802      5798      5801      5803      5798      5801      5804
      5799      5798      5800      5799      5798      5801      5800      5798      5801
      5801      5804      5805      5801      5804      5806      5801      5804      5807
      5802      5801      5803      5802      5801      5804      5803      5801      5804
      5804      5807      5808      5804      5807      5809      5805      5804      5806
      5805      5804      5807      5806      5804      5807      5807      5809      5810
      5807      5809      5811      5808      5807      5809      5809      5811      5812
      5809      5811      5813      5809      5811      5814      5810      5809      5811
      5811      5814      5815      5811      5814      5816      5811      5814      5817
      5812      5811      5813      5812      5811      5814      5813      5811      5814
      5814      5817      5818      5814      5817      5819      5814      5817      5820
      5815      5814      5816      5815      5814      5817      5816      5814      5817
      5817      5820      5821      5817      5820      5822      5817      5820      5823
      5818      5817      5819      5818      5817      5820      5819      5817      5820
      5820      5823      5824      5820      5823      5825      5820      5823      5826
      5821      5820      5822      5821      5820      5823      5822      5820      5823
      5823      5826      5827      5823      5826      5828      5823      5826      5829
      5824      5823      5825      5824      5823      5826      5825      5823      5826
      5826      5829      5830      5826      5829      5831      5826      5829      5832
      5827      5826      5828      5827      5826      5829      5828      5826      5829
      5829      5832      5833      5829      5832      5834      5829      5832      5835
      5830      5829      5831      5830      5829      5832      5831      5829      5832
      5833      5832      5834      5833      5832      5835      5834      5832      5835
      5836      5839      5840      5836      5839      5841      5836      5839      5842
      5837      5836      5838      5837      5836      5839      5838      5836      5839
      5839      5842      5843      5839      5842      5844      5839      5842      5845
      5840      5839      5841      5840      5839      5842      5841      5839      5842
      5842      5845      5846      5842      5845      5847      5842      5845      5848
      5843      5842      5844      5843      5842      5845      5844      5842      5845
      5845      5848      5849      5845      5848      5850      5845      5848      5851
      5846      5845      5847      5846      5845      5848      5847      5845      5848
      5848      5851      5852      5848      5851      5853      5848      5851      5854
      5849      5848      5850      5849      5848      5851      5850      5848      5851
      5851      5854      5855      5851      5854      5856      5852      5851      5853
      5852      5851      5854      5853      5851      5854      5854      5856      5857
      5854      5856      5858      5855      5854      5856      5856      5858      5859
      5856      5858      5860      5856      5858      5861      5857      5856      5858
      5858      5861      5862      5858      5861      5863      5858      5861      5864
      5859      5858      5860      5859      5858      5861      5860      5858      5861
      5861      5864      5865      5861      5864      5866      5861      5864      5867
      5862      5861      5863      5862      5861      5864      5863      5861      5864
      5864      5867      5868      5864      5867      5869      5864      5867      5870
      5865      5864      5866      5865      5864      5867      5866      5864      5867
      5867      5870      5871      5867      5870      5872      5867      5870      5873
      5868      5867      5869      5868      5867      5870      5869      5867      5870
      5870      5873      5874      5870      5873      5875      5870      5873      5876
      5871      5870      5872      5871      5870      5873      5872      5870      5873
      5873      5876      5877      5873      5876      5878      5873      5876      5879
      5874      5873      5875      5874      5873      5876      5875      5873      5876
      5876      5879      5880      5876      5879      5881      5876      5879      5882
      5877      5876      5878      5877      5876      5879      5878      5876      5879
      5880      5879      5881      5880      5879      5882      5881      5879      5882
      5883      5884      5885      5883      5884      5886      5883      5884      5899
      5883      5887      5888      5883      5887      5889      5883      5887      5890
      5883      5891      5892      5883      5891      5893      5883      5891      5894
      5883      5895      5896      5883      5895      5897      5883      5895      5898
      5884      5883      5887      5884      5883      5891      5884      5883      5895
      5884      5899      5900      5884      5899      5901      5884      5899      5905
      5885      5884      5886      5885      5884      5899      5886      5884      5899
      5887      5883      5891      5887      5883      5895      5888      5887      5889
      5888      5887      5890      5889      5887      5890      5891      5883      5895
      5892      5891      5893      5892      5891      5894      5893      5891      5894
      5896      5895      5897      5896      5895      5898      5897      5895      5898
      5899      5905      5902      5900      5899      5901      5900      5899      5905
      5901      5899      5905      5902      5906      5907      5903      5902      5904
      5903      5902      5905      5903      5902      5906      5904      5902      5905
      5904      5902      5906      5905      5902      5906      5906      5907      5908
      5906      5907      5909      5906      5907      5910      5907      5910      5911
      5907      5910      5912      5907      5910      5918      5908      5907      5909
      5908      5907      5910      5909      5907      5910      5910      5912      5913
      5910      5918      5919      5910      5918      5920      5910      5918      5921
      5911      5910      5912      5911      5910      5918      5912      5910      5918
      5912      5913      5914      5912      5913      5915      5913      5915      5916
      5913      5915      5917      5913      5915      5927      5914      5913      5915
      5915      5927      5928      5915      5927      5929      5915      5927      5930
      5916      5915      5917      5916      5915      5927      5917      5915      5927
      5918      5921      5922      5919      5918      5920      5919      5918      5921
      5920      5918      5921      5921      5922      5923      5921      5922      5924
      5922      5924      5925      5922      5924      5926      5922      5924      5974
      5923      5922      5924      5924      5974      5975      5924      5974      5976
      5924      5974      5977      5925      5924      5926      5925      5924      5974
      5926      5924      5974      5927      5930      5931      5927      5930      5932
      5927      5930      5933      5928      5927      5929      5928      5927      5930
      5929      5927      5930      5930      5933      5934      5930      5933      5935
      5930      5933      5936      5931      5930      5932      5931      5930      5933
      5932      5930      5933      5933      5936      5937      5933      5936      5938
      5933      5936      5939      5934      5933      5935      5934      5933      5936
      5935      5933      5936      5936      5939      5940      5936      5939      5941
      5936      5939      5942      5937      5936      5938      5937      5936      5939
      5938      5936      5939      5939      5942      5943      5939      5942      5944
      5939      5942      5945      5940      5939      5941      5940      5939      5942
      5941      5939      5942      5942      5945      5946      5942      5945      5947
      5943      5942      5944      5943      5942      5945      5944      5942      5945
      5945      5947      5948      5945      5947      5949      5946      5945      5947
      5947      5949      5950      5947      5949      5951      5947      5949      5952
      5948      5947      5949      5949      5952      5953      5949      5952      5954
      5949      5952      5955      5950      5949      5951      5950      5949      5952
      5951      5949      5952      5952      5955      5956      5952      5955      5957
      5952      5955      5958      5953      5952      5954      5953      5952      5955
      5954      5952      5955      5955      5958      5959      5955      5958      5960
      5955      5958      5961      5956      5955      5957      5956      5955      5958
      5957      5955      5958      5958      5961      5962      5958      5961      5963
      5958      5961      5964      5959      5958      5960      5959      5958      5961
      5960      5958      5961      5961      5964      5965      5961      5964      5966
      5961      5964      5967      5962      5961      5963      5962      5961      5964
      5963      5961      5964      5964      5967      5968      5964      5967      5969
      5964      5967      5970      5965      5964      5966      5965      5964      5967
      5966      5964      5967      5967      5970      5971      5967      5970      5972
      5967      5970      5973      5968      5967      5969      5968      5967      5970
      5969      5967      5970      5971      5970      5972      5971      5970      5973
      5972      5970      5973      5974      5977      5978      5974      5977      5979
      5974      5977      5980      5975      5974      5976      5975      5974      5977
      5976      5974      5977      5977      5980      5981      5977      5980      5982
      5977      5980      5983      5978      5977      5979      5978      5977      5980
      5979      5977      5980      5980      5983      5984      5980      5983      5985
      5980      5983      5986      5981      5980      5982      5981      5980      5983
      5982      5980      5983      5983      5986      5987      5983      5986      5988
      5983      5986      5989      5984      5983      5985      5984      5983      5986
      5985      5983      5986      5986      5989      5990      5986      5989      5991
      5986      5989      5992      5987      5986      5988      5987      5986      5989
      5988      5986      5989      5989      5992      5993      5989      5992      5994
      5990      5989      5991      5990      5989      5992      5991      5989      5992
      5992      5994      5995      5992      5994      5996      5993      5992      5994
      5994      5996      5997      5994      5996      5998      5994      5996      5999
      5995      5994      5996      5996      5999      6000      5996      5999      6001
      5996      5999      6002      5997      5996      5998      5997      5996      5999
      5998      5996      5999      5999      6002      6003      5999      6002      6004
      5999      6002      6005      6000      5999      6001      6000      5999      6002
      6001      5999      6002      6002      6005      6006      6002      6005      6007
      6002      6005      6008      6003      6002      6004      6003      6002      6005
      6004      6002      6005      6005      6008      6009      6005      6008      6010
      6005      6008      6011      6006      6005      6007      6006      6005      6008
      6007      6005      6008      6008      6011      6012      6008      6011      6013
      6008      6011      6014      6009      6008      6010      6009      6008      6011
      6010      6008      6011      6011      6014      6015      6011      6014      6016
      6011      6014      6017      6012      6011      6013      6012      6011      6014
      6013      6011      6014      6014      6017      6018      6014      6017      6019
      6014      6017      6020      6015      6014      6016      6015      6014      6017
      6016      6014      6017      6018      6017      6019      6018      6017      6020
      6019      6017      6020      6021      6022      6023      6021      6022      6024
      6021      6022      6037      6021      6025      6026      6021      6025      6027
      6021      6025      6028      6021      6029      6030      6021      6029      6031
      6021      6029      6032      6021      6033      6034      6021      6033      6035
      6021      6033      6036      6022      6021      6025      6022      6021      6029
      6022      6021      6033      6022      6037      6038      6022      6037      6039
      6022      6037      6043      6023      6022      6024      6023      6022      6037
      6024      6022      6037      6025      6021      6029      6025      6021      6033
      6026      6025      6027      6026      6025      6028      6027      6025      6028
      6029      6021      6033      6030      6029      6031      6030      6029      6032
      6031      6029      6032      6034      6033      6035      6034      6033      6036
      6035      6033      6036      6037      6043      6040      6038      6037      6039
      6038      6037      6043      6039      6037      6043      6040      6044      6045
      6041      6040      6042      6041      6040      6043      6041      6040      6044
      6042      6040      6043      6042      6040      6044      6043      6040      6044
      6044      6045      6046      6044      6045      6047      6044      6045      6048
      6045      6048      6049      6045      6048      6050      6045      6048      6056
      6046      6045      6047      6046      6045      6048      6047      6045      6048
      6048      6050      6051      6048      6056      6057      6048      6056      6058
      6048      6056      6059      6049      6048      6050      6049      6048      6056
      6050      6048      6056      6050      6051      6052      6050      6051      6053
      6051      6053      6054      6051      6053      6055      6051      6053      6065
      6052      6051      6053      6053      6065      6066      6053      6065      6067
      6053      6065      6068      6054      6053      6055      6054      6053      6065
      6055      6053      6065      6056      6059      6060      6057      6056      6058
      6057      6056      6059      6058      6056      6059      6059      6060      6061
      6059      6060      6062      6060      6062      6063      6060      6062      6064
      6060      6062      6112      6061      6060      6062      6062      6112      6113
      6062      6112      6114      6062      6112      6115      6063      6062      6064
      6063      6062      6112      6064      6062      6112      6065      6068      6069
      6065      6068      6070      6065      6068      6071      6066      6065      6067
      6066      6065      6068      6067      6065      6068      6068      6071      6072
      6068      6071      6073      6068      6071      6074      6069      6068      6070
      6069      6068      6071      6070      6068      6071      6071      6074      6075
      6071      6074      6076      6071      6074      6077      6072      6071      6073
      6072      6071      6074      6073      6071      6074      6074      6077      6078
      6074      6077      6079      6074      6077      6080      6075      6074      6076
      6075      6074      6077      6076      6074      6077      6077      6080      6081
      6077      6080      6082      6077      6080      6083      6078      6077      6079
      6078      6077      6080      6079      6077      6080      6080      6083      6084
      6080      6083      6085      6081      6080      6082      6081      6080      6083
      6082      6080      6083      6083      6085      6086      6083      6085      6087
      6084      6083      6085      6085      6087      6088      6085      6087      6089
      6085      6087      6090      6086      6085      6087      6087      6090      6091
      6087      6090      6092      6087      6090      6093      6088      6087      6089
      6088      6087      6090      6089      6087      6090      6090      6093      6094
      6090      6093      6095      6090      6093      6096      6091      6090      6092
      6091      6090      6093      6092      6090      6093      6093      6096      6097
      6093      6096      6098      6093      6096      6099      6094      6093      6095
      6094      6093      6096      6095      6093      6096      6096      6099      6100
      6096      6099      6101      6096      6099      6102      6097      6096      6098
      6097      6096      6099      6098      6096      6099      6099      6102      6103
      6099      6102      6104      6099      6102      6105      6100      6099      6101
      6100      6099      6102      6101      6099      6102      6102      6105      6106
      6102      6105      6107      6102      6105      6108      6103      6102      6104
      6103      6102      6105      6104      6102      6105      6105      6108      6109
      6105      6108      6110      6105      6108      6111      6106      6105      6107
      6106      6105      6108      6107      6105      6108      6109      6108      6110
      6109      6108      6111      6110      6108      6111      6112      6115      6116
      6112      6115      6117      6112      6115      6118      6113      6112      6114
      6113      6112      6115      6114      6112      6115      6115      6118      6119
      6115      6118      6120      6115      6118      6121      6116      6115      6117
      6116      6115      6118      6117      6115      6118      6118      6121      6122
      6118      6121      6123      6118      6121      6124      6119      6118      6120
      6119      6118      6121      6120      6118      6121      6121      6124      6125
      6121      6124      6126      6121      6124      6127      6122      6121      6123
      6122      6121      6124      6123      6121      6124      6124      6127      6128
      6124      6127      6129      6124      6127      6130      6125      6124      6126
      6125      6124      6127      6126      6124      6127      6127      6130      6131
      6127      6130      6132      6128      6127      6129      6128      6127      6130
      6129      6127      6130      6130      6132      6133      6130      6132      6134
      6131      6130      6132      6132      6134      6135      6132      6134      6136
      6132      6134      6137      6133      6132      6134      6134      6137      6138
      6134      6137      6139      6134      6137      6140      6135      6134      6136
      6135      6134      6137      6136      6134      6137      6137      6140      6141
      6137      6140      6142      6137      6140      6143      6138      6137      6139
      6138      6137      6140      6139      6137      6140      6140      6143      6144
      6140      6143      6145      6140      6143      6146      6141      6140      6142
      6141      6140      6143      6142      6140      6143      6143      6146      6147
      6143      6146      6148      6143      6146      6149      6144      6143      6145
      6144      6143      6146      6145      6143      6146      6146      6149      6150
      6146      6149      6151      6146      6149      6152      6147      6146      6148
      6147      6146      6149      6148      6146      6149      6149      6152      6153
      6149      6152      6154      6149      6152      6155      6150      6149      6151
      6150      6149      6152      6151      6149      6152      6152      6155      6156
      6152      6155      6157      6152      6155      6158      6153      6152      6154
      6153      6152      6155      6154      6152      6155      6156      6155      6157
      6156      6155      6158      6157      6155      6158      6159      6160      6161
      6159      6160      6162      6159      6160      6175      6159      6163      6164
      6159      6163      6165      6159      6163      6166      6159      6167      6168
      6159      6167      6169      6159      6167      6170      6159      6171      6172
      6159      6171      6173      6159      6171      6174      6160      6159      6163
      6160      6159      6167      6160      6159      6171      6160      6175      6176
      6160      6175      6177      6160      6175      6181      6161      6160      6162
      6161      6160      6175      6162      6160      6175      6163      6159      6167
      6163      6159      6171      6164      6163      6165      6164      6163      6166
      6165      6163      6166      6167      6159      6171      6168      6167      6169
      6168      6167      6170      6169      6167      6170      6172      6171      6173
      6172      6171      6174      6173      6171      6174      6175      6181      6178
      6176      6175      6177      6176      6175      6181      6177      6175      6181
      6178      6182      6183      6179      6178      6180      6179      6178      6181
      6179      6178      6182      6180      6178      6181      6180      6178      6182
      6181      6178      6182      6182      6183      6184      6182      6183      6185
      6182      6183      6186      6183      6186      6187      6183      6186      6188
      6183      6186      6194      6184      6183      6185      6184      6183      6186
      6185      6183      6186      6186      6188      6189      6186      6194      6195
      6186      6194      6196      6186      6194      6197      6187      6186      6188
      6187      6186      6194      6188      6186      6194      6188      6189      6190
      6188      6189      6191      6189      6191      6192      6189      6191      6193
      6189      6191      6203      6190      6189      6191      6191      6203      6204
      6191      6203      6205      6191      6203      6206      6192      6191      6193
      6192      6191      6203      6193      6191      6203      6194      6197      6198
      6195      6194      6196      6195      6194      6197      6196      6194      6197
      6197      6198      6199      6197      6198      6200      6198      6200      6201
      6198      6200      6202      6198      6200      6250      6199      6198      6200
      6200      6250      6251      6200      6250      6252      6200      6250      6253
      6201      6200      6202      6201      6200      6250      6202      6200      6250
      6203      6206      6207      6203      6206      6208      6203      6206      6209
      6204      6203      6205      6204      6203      6206      6205      6203      6206
      6206      6209      6210      6206      6209      6211      6206      6209      6212
      6207      6206      6208      6207      6206      6209      6208      6206      6209
      6209      6212      6213      6209      6212      6214      6209      6212      6215
      6210      6209      6211      6210      6209      6212      6211      6209      6212
      6212      6215      6216      6212      6215      6217      6212      6215      6218
      6213      6212      6214      6213      6212      6215      6214      6212      6215
      6215      6218      6219      6215      6218      6220      6215      6218      6221
      6216      6215      6217      6216      6215      6218      6217      6215      6218
      6218      6221      6222      6218      6221      6223      6219      6218      6220
      6219      6218      6221      6220      6218      6221      6221      6223      6224
      6221      6223      6225      6222      6221      6223      6223      6225      6226
      6223      6225      6227      6223      6225      6228      6224      6223      6225
      6225      6228      6229      6225      6228      6230      6225      6228      6231
      6226      6225      6227      6226      6225      6228      6227      6225      6228
      6228      6231      6232      6228      6231      6233      6228      6231      6234
      6229      6228      6230      6229      6228      6231      6230      6228      6231
      6231      6234      6235      6231      6234      6236      6231      6234      6237
      6232      6231      6233      6232      6231      6234      6233      6231      6234
      6234      6237      6238      6234      6237      6239      6234      6237      6240
      6235      6234      6236      6235      6234      6237      6236      6234      6237
      6237      6240      6241      6237      6240      6242      6237      6240      6243
      6238      6237      6239      6238      6237      6240      6239      6237      6240
      6240      6243      6244      6240      6243      6245      6240      6243      6246
      6241      6240      6242      6241      6240      6243      6242      6240      6243
      6243      6246      6247      6243      6246      6248      6243      6246      6249
      6244      6243      6245      6244      6243      6246      6245      6243      6246
      6247      6246      6248      6247      6246      6249      6248      6246      6249
      6250      6253      6254      6250      6253      6255      6250      6253      6256
      6251      6250      6252      6251      6250      6253      6252      6250      6253
      6253      6256      6257      6253      6256      6258      6253      6256      6259
      6254      6253      6255      6254      6253      6256      6255      6253      6256
      6256      6259      6260      6256      6259      6261      6256      6259      6262
      6257      6256      6258      6257      6256      6259      6258      6256      6259
      6259      6262      6263      6259      6262      6264      6259      6262      6265
      6260      6259      6261      6260      6259      6262      6261      6259      6262
      6262      6265      6266      6262      6265      6267      6262      6265      6268
      6263      6262      6264      6263      6262      6265      6264      6262      6265
      6265      6268      6269      6265      6268      6270      6266      6265      6267
      6266      6265      6268      6267      6265      6268      6268      6270      6271
      6268      6270      6272      6269      6268      6270      6270      6272      6273
      6270      6272      6274      6270      6272      6275      6271      6270      6272
      6272      6275      6276      6272      6275      6277      6272      6275      6278
      6273      6272      6274      6273      6272      6275      6274      6272      6275
      6275      6278      6279      6275      6278      6280      6275      6278      6281
      6276      6275      6277      6276      6275      6278      6277      6275      6278
      6278      6281      6282      6278      6281      6283      6278      6281      6284
      6279      6278      6280      6279      6278      6281      6280      6278      6281
      6281      6284      6285      6281      6284      6286      6281      6284      6287
      6282      6281      6283      6282      6281      6284      6283      6281      6284
      6284      6287      6288      6284      6287      6289      6284      6287      6290
      6285      6284      6286      6285      6284      6287      6286      6284      6287
      6287      6290      6291      6287      6290      6292      6287      6290      6293
      6288      6287      6289      6288      6287      6290      6289      6287      6290
      6290      6293      6294      6290      6293      6295      6290      6293      6296
      6291      6290      6292      6291      6290      6293      6292      6290      6293
      6294      6293      6295      6294      6293      6296      6295      6293      6296
      6297      6298      6299      6297      6298      6300      6297      6298      6313
      6297      6301      6302      6297      6301      6303      6297      6301      6304
      6297      6305      6306      6297      6305      6307      6297      6305      6308
      6297      6309      6310      6297      6309      6311      6297      6309      6312
      6298      6297      6301      6298      6297      6305      6298      6297      6309
      6298      6313      6314      6298      6313      6315      6298      6313      6319
      6299      6298      6300      6299      6298      6313      6300      6298      6313
      6301      6297      6305      6301      6297      6309      6302      6301      6303
      6302      6301      6304      6303      6301      6304      6305      6297      6309
      6306      6305      6307      6306      6305      6308      6307      6305      6308
      6310      6309      6311      6310      6309      6312      6311      6309      6312
      6313      6319      6316      6314      6313      6315      6314      6313      6319
      6315      6313      6319      6316      6320      6321      6317      6316      6318
      6317      6316      6319      6317      6316      6320      6318      6316      6319
      6318      6316      6320      6319      6316      6320      6320      6321      6322
      6320      6321      6323      6320      6321      6324      6321      6324      6325
      6321      6324      6326      6321      6324      6332      6322      6321      6323
      6322      6321      6324      6323      6321      6324      6324      6326      6327
      6324      6332      6333      6324      6332      6334      6324      6332      6335
      6325      6324      6326      6325      6324      6332      6326      6324      6332
      6326      6327      6328      6326      6327      6329      6327      6329      6330
      6327      6329      6331      6327      6329      6341      6328      6327      6329
      6329      6341      6342      6329      6341      6343      6329      6341      6344
      6330      6329      6331      6330      6329      6341      6331      6329      6341
      6332      6335      6336      6333      6332      6334      6333      6332      6335
      6334      6332      6335      6335      6336      6337      6335      6336      6338
      6336      6338      6339      6336      6338      6340      6336      6338      6388
      6337      6336      6338      6338      6388      6389      6338      6388      6390
      6338      6388      6391      6339      6338      6340      6339      6338      6388
      6340      6338      6388      6341      6344      6345      6341      6344      6346
      6341      6344      6347      6342      6341      6343      6342      6341      6344
      6343      6341      6344      6344      6347      6348      6344      6347      6349
      6344      6347      6350      6345      6344      6346      6345      6344      6347
      6346      6344      6347      6347      6350      6351      6347      6350      6352
      6347      6350      6353      6348      6347      6349      6348      6347      6350
      6349      6347      6350      6350      6353      6354      6350      6353      6355
      6350      6353      6356      6351      6350      6352      6351      6350      6353
      6352      6350      6353      6353      6356      6357      6353      6356      6358
      6353      6356      6359      6354      6353      6355      6354      6353      6356
      6355      6353      6356      6356      6359      6360      6356      6359      6361
      6357      6356      6358      6357      6356      6359      6358      6356      6359
      6359      6361      6362      6359      6361      6363      6360      6359      6361
      6361      6363      6364      6361      6363      6365      6361      6363      6366
      6362      6361      6363      6363      6366      6367      6363      6366      6368
      6363      6366      6369      6364      6363      6365      6364      6363      6366
      6365      6363      6366      6366      6369      6370      6366      6369      6371
      6366      6369      6372      6367      6366      6368      6367      6366      6369
      6368      6366      6369      6369      6372      6373      6369      6372      6374
      6369      6372      6375      6370      6369      6371      6370      6369      6372
      6371      6369      6372      6372      6375      6376      6372      6375      6377
      6372      6375      6378      6373      6372      6374      6373      6372      6375
      6374      6372      6375      6375      6378      6379      6375      6378      6380
      6375      6378      6381      6376      6375      6377      6376      6375      6378
      6377      6375      6378      6378      6381      6382      6378      6381      6383
      6378      6381      6384      6379      6378      6380      6379      6378      6381
      6380      6378      6381      6381      6384      6385      6381      6384      6386
      6381      6384      6387      6382      6381      6383      6382      6381      6384
      6383      6381      6384      6385      6384      6386      6385      6384      6387
      6386      6384      6387      6388      6391      6392      6388      6391      6393
      6388      6391      6394      6389      6388      6390      6389      6388      6391
      6390      6388      6391      6391      6394      6395      6391      6394      6396
      6391      6394      6397      6392      6391      6393      6392      6391      6394
      6393      6391      6394      6394      6397      6398      6394      6397      6399
      6394      6397      6400      6395      6394      6396      6395      6394      6397
      6396      6394      6397      6397      6400      6401      6397      6400      6402
      6397      6400      6403      6398      6397      6399      6398      6397      6400
      6399      6397      6400      6400      6403      6404      6400      6403      6405
      6400      6403      6406      6401      6400      6402      6401      6400      6403
      6402      6400      6403      6403      6406      6407      6403      6406      6408
      6404      6403      6405      6404      6403      6406      6405      6403      6406
      6406      6408      6409      6406      6408      6410      6407      6406      6408
      6408      6410      6411      6408      6410      6412      6408      6410      6413
      6409      6408      6410      6410      6413      6414      6410      6413      6415
      6410      6413      6416      6411      6410      6412      6411      6410      6413
      6412      6410      6413      6413      6416      6417      6413      6416      6418
      6413      6416      6419      6414      6413      6415      6414      6413      6416
      6415      6413      6416      6416      6419      6420      6416      6419      6421
      6416      6419      6422      6417      6416      6418      6417      6416      6419
      6418      6416      6419      6419      6422      6423      6419      6422      6424
      6419      6422      6425      6420      6419      6421      6420      6419      6422
      6421      6419      6422      6422      6425      6426      6422      6425      6427
      6422      6425      6428      6423      6422      6424      6423      6422      6425
      6424      6422      6425      6425      6428      6429      6425      6428      6430
      6425      6428      6431      6426      6425      6427      6426      6425      6428
      6427      6425      6428      6428      6431      6432      6428      6431      6433
      6428      6431      6434      6429      6428      6430      6429      6428      6431
      6430      6428      6431      6432      6431      6433      6432      6431      6434
      6433      6431      6434      6435      6436      6437      6435      6436      6438
      6435      6436      6451      6435      6439      6440      6435      6439      6441
      6435      6439      6442      6435      6443      6444      6435      6443      6445
      6435      6443      6446      6435      6447      6448      6435      6447      6449
      6435      6447      6450      6436      6435      6439      6436      6435      6443
      6436      6435      6447      6436      6451      6452      6436      6451      6453
      6436      6451      6457      6437      6436      6438      6437      6436      6451
      6438      6436      6451      6439      6435      6443      6439      6435      6447
      6440      6439      6441      6440      6439      6442      6441      6439      6442
      6443      6435      6447      6444      6443      6445      6444      6443      6446
      6445      6443      6446      6448      6447      6449      6448      6447      6450
      6449      6447      6450      6451      6457      6454      6452      6451      6453
      6452      6451      6457      6453      6451      6457      6454      6458      6459
      6455      6454      6456      6455      6454      6457      6455      6454      6458
      6456      6454      6457      6456      6454      6458      6457      6454      6458
      6458      6459      6460      6458      6459      6461      6458      6459      6462
      6459      6462      6463      6459      6462      6464      6459      6462      6470
      6460      6459      6461      6460      6459      6462      6461      6459      6462
      6462      6464      6465      6462      6470      6471      6462      6470      6472
      6462      6470      6473      6463      6462      6464      6463      6462      6470
      6464      6462      6470      6464      6465      6466      6464      6465      6467
      6465      6467      6468      6465      6467      6469      6465      6467      6479
      6466      6465      6467      6467      6479      6480      6467      6479      6481
      6467      6479      6482      6468      6467      6469      6468      6467      6479
      6469      6467      6479      6470      6473      6474      6471      6470      6472
      6471      6470      6473      6472      6470      6473      6473      6474      6475
      6473      6474      6476      6474      6476      6477      6474      6476      6478
      6474      6476      6526      6475      6474      6476      6476      6526      6527
      6476      6526      6528      6476      6526      6529      6477      6476      6478
      6477      6476      6526      6478      6476      6526      6479      6482      6483
      6479      6482      6484      6479      6482      6485      6480      6479      6481
      6480      6479      6482      6481      6479      6482      6482      6485      6486
      6482      6485      6487      6482      6485      6488      6483      6482      6484
      6483      6482      6485      6484      6482      6485      6485      6488      6489
      6485      6488      6490      6485      6488      6491      6486      6485      6487
      6486      6485      6488      6487      6485      6488      6488      6491      6492
      6488      6491      6493      6488      6491      6494      6489      6488      6490
      6489      6488      6491      6490      6488      6491      6491      6494      6495
      6491      6494      6496      6491      6494      6497      6492      6491      6493
      6492      6491      6494      6493      6491      6494      6494      6497      6498
      6494      6497      6499      6495      6494      6496      6495      6494      6497
      6496      6494      6497      6497      6499      6500      6497      6499      6501
      6498      6497      6499      6499      6501      6502      6499      6501      6503
      6499      6501      6504      6500      6499      6501      6501      6504      6505
      6501      6504      6506      6501      6504      6507      6502      6501      6503
      6502      6501      6504      6503      6501      6504      6504      6507      6508
      6504      6507      6509      6504      6507      6510      6505      6504      6506
      6505      6504      6507      6506      6504      6507      6507      6510      6511
      6507      6510      6512      6507      6510      6513      6508      6507      6509
      6508      6507      6510      6509      6507      6510      6510      6513      6514
      6510      6513      6515      6510      6513      6516      6511      6510      6512
      6511      6510      6513      6512      6510      6513      6513      6516      6517
      6513      6516      6518      6513      6516      6519      6514      6513      6515
      6514      6513      6516      6515      6513      6516      6516      6519      6520
      6516      6519      6521      6516      6519      6522      6517      6516      6518
      6517      6516      6519      6518      6516      6519      6519      6522      6523
      6519      6522      6524      6519      6522      6525      6520      6519      6521
      6520      6519      6522      6521      6519      6522      6523      6522      6524
      6523      6522      6525      6524      6522      6525      6526      6529      6530
      6526      6529      6531      6526      6529      6532      6527      6526      6528
      6527      6526      6529      6528      6526      6529      6529      6532      6533
      6529      6532      6534      6529      6532      6535      6530      6529      6531
      6530      6529      6532      6531      6529      6532      6532      6535      6536
      6532      6535      6537      6532      6535      6538      6533      6532      6534
      6533      6532      6535      6534      6532      6535      6535      6538      6539
      6535      6538      6540      6535      6538      6541      6536      6535      6537
      6536      6535      6538      6537      6535      6538      6538      6541      6542
      6538      6541      6543      6538      6541      6544      6539      6538      6540
      6539      6538      6541      6540      6538      6541      6541      6544      6545
      6541      6544      6546      6542      6541      6543      6542      6541      6544
      6543      6541      6544      6544      6546      6547      6544      6546      6548
      6545      6544      6546      6546      6548      6549      6546      6548      6550
      6546      6548      6551      6547      6546      6548      6548      6551      6552
      6548      6551      6553      6548      6551      6554      6549      6548      6550
      6549      6548      6551      6550      6548      6551      6551      6554      6555
      6551      6554      6556      6551      6554      6557      6552      6551      6553
      6552      6551      6554      6553      6551      6554      6554      6557      6558
      6554      6557      6559      6554      6557      6560      6555      6554      6556
      6555      6554      6557      6556      6554      6557      6557      6560      6561
      6557      6560      6562      6557      6560      6563      6558      6557      6559
      6558      6557      6560      6559      6557      6560      6560      6563      6564
      6560      6563      6565      6560      6563      6566      6561      6560      6562
      6561      6560      6563      6562      6560      6563      6563      6566      6567
      6563      6566      6568      6563      6566      6569      6564      6563      6565
      6564      6563      6566      6565      6563      6566      6566      6569      6570
      6566      6569      6571      6566      6569      6572      6567      6566      6568
      6567      6566      6569      6568      6566      6569      6570      6569      6571
      6570      6569      6572      6571      6569      6572      6573      6574      6575
      6573      6574      6576      6573      6574      6589      6573      6577      6578
      6573      6577      6579      6573      6577      6580      6573      6581      6582
      6573      6581      6583      6573      6581      6584      6573      6585      6586
      6573      6585      6587      6573      6585      6588      6574      6573      6577
      6574      6573      6581      6574      6573      6585      6574      6589      6590
      6574      6589      6591      6574      6589      6595      6575      6574      6576
      6575      6574      6589      6576      6574      6589      6577      6573      6581
      6577      6573      6585      6578      6577      6579      6578      6577      6580
      6579      6577      6580      6581      6573      6585      6582      6581      6583
      6582      6581      6584      6583      6581      6584      6586      6585      6587
      6586      6585      6588      6587      6585      6588      6589      6595      6592
      6590      6589      6591      6590      6589      6595      6591      6589      6595
      6592      6596      6597      6593      6592      6594      6593      6592      6595
      6593      6592      6596      6594      6592      6595      6594      6592      6596
      6595      6592      6596      6596      6597      6598      6596      6597      6599
      6596      6597      6600      6597      6600      6601      6597      6600      6602
      6597      6600      6608      6598      6597      6599      6598      6597      6600
      6599      6597      6600      6600      6602      6603      6600      6608      6609
      6600      6608      6610      6600      6608      6611      6601      6600      6602
      6601      6600      6608      6602      6600      6608      6602      6603      6604
      6602      6603      6605      6603      6605      6606      6603      6605      6607
      6603      6605      6617      6604      6603      6605      6605      6617      6618
      6605      6617      6619      6605      6617      6620      6606      6605      6607
      6606      6605      6617      6607      6605      6617      6608      6611      6612
      6609      6608      6610      6609      6608      6611      6610      6608      6611
      6611      6612      6613      6611      6612      6614      6612      6614      6615
      6612      6614      6616      6612      6614      6664      6613      6612      6614
      6614      6664      6665      6614      6664      6666      6614      6664      6667
      6615      6614      6616      6615      6614      6664      6616      6614      6664
      6617      6620      6621      6617      6620      6622      6617      6620      6623
      6618      6617      6619      6618      6617      6620      6619      6617      6620
      6620      6623      6624      6620      6623      6625      6620      6623      6626
      6621      6620      6622      6621      6620      6623      6622      6620      6623
      6623      6626      6627      6623      6626      6628      6623      6626      6629
      6624      6623      6625      6624      6623      6626      6625      6623      6626
      6626      6629      6630      6626      6629      6631      6626      6629      6632
      6627      6626      6628      6627      6626      6629      6628      6626      6629
      6629      6632      6633      6629      6632      6634      6629      6632      6635
      6630      6629      6631      6630      6629      6632      6631      6629      6632
      6632      6635      6636      6632      6635      6637      6633      6632      6634
      6633      6632      6635      6634      6632      6635      6635      6637      6638
      6635      6637      6639      6636      6635      6637      6637      6639      6640
      6637      6639      6641      6637      6639      6642      6638      6637      6639
      6639      6642      6643      6639      6642      6644      6639      6642      6645
      6640      6639      6641      6640      6639      6642      6641      6639      6642
      6642      6645      6646      6642      6645      6647      6642      6645      6648
      6643      6642      6644      6643      6642      6645      6644      6642      6645
      6645      6648      6649      6645      6648      6650      6645      6648      6651
      6646      6645      6647      6646      6645      6648      6647      6645      6648
      6648      6651      6652      6648      6651      6653      6648      6651      6654
      6649      6648      6650      6649      6648      6651      6650      6648      6651
      6651      6654      6655      6651      6654      6656      6651      6654      6657
      6652      6651      6653      6652      6651      6654      6653      6651      6654
      6654      6657      6658      6654      6657      6659      6654      6657      6660
      6655      6654      6656      6655      6654      6657      6656      6654      6657
      6657      6660      6661      6657      6660      6662      6657      6660      6663
      6658      6657      6659      6658      6657      6660      6659      6657      6660
      6661      6660      6662      6661      6660      6663      6662      6660      6663
      6664      6667      6668      6664      6667      6669      6664      6667      6670
      6665      6664      6666      6665      6664      6667      6666      6664      6667
      6667      6670      6671      6667      6670      6672      6667      6670      6673
      6668      6667      6669      6668      6667      6670      6669      6667      6670
      6670      6673      6674      6670      6673      6675      6670      6673      6676
      6671      6670      6672      6671      6670      6673      6672      6670      6673
      6673      6676      6677      6673      6676      6678      6673      6676      6679
      6674      6673      6675      6674      6673      6676      6675      6673      6676
      6676      6679      6680      6676      6679      6681      6676      6679      6682
      6677      6676      6678      6677      6676      6679      6678      6676      6679
      6679      6682      6683      6679      6682      6684      6680      6679      6681
      6680      6679      6682      6681      6679      6682      6682      6684      6685
      6682      6684      6686      6683      6682      6684      6684      6686      6687
      6684      6686      6688      6684      6686      6689      6685      6684      6686
      6686      6689      6690      6686      6689      6691      6686      6689      6692
      6687      6686      6688      6687      6686      6689      6688      6686      6689
      6689      6692      6693      6689      6692      6694      6689      6692      6695
      6690      6689      6691      6690      6689      6692      6691      6689      6692
      6692      6695      6696      6692      6695      6697      6692      6695      6698
      6693      6692      6694      6693      6692      6695      6694      6692      6695
      6695      6698      6699      6695      6698      6700      6695      6698      6701
      6696      6695      6697      6696      6695      6698      6697      6695      6698
      6698      6701      6702      6698      6701      6703      6698      6701      6704
      6699      6698      6700      6699      6698      6701      6700      6698      6701
      6701      6704      6705      6701      6704      6706      6701      6704      6707
      6702      6701      6703      6702      6701      6704      6703      6701      6704
      6704      6707      6708      6704      6707      6709      6704      6707      6710
      6705      6704      6706      6705      6704      6707      6706      6704      6707
      6708      6707      6709      6708      6707      6710      6709      6707      6710
      6711      6712      6713      6711      6712      6714      6711      6712      6727
      6711      6715      6716      6711      6715      6717      6711      6715      6718
      6711      6719      6720      6711      6719      6721      6711      6719      6722
      6711      6723      6724      6711      6723      6725      6711      6723      6726
      6712      6711      6715      6712      6711      6719      6712      6711      6723
      6712      6727      6728      6712      6727      6729      6712      6727      6733
      6713      6712      6714      6713      6712      6727      6714      6712      6727
      6715      6711      6719      6715      6711      6723      6716      6715      6717
      6716      6715      6718      6717      6715      6718      6719      6711      6723
      6720      6719      6721      6720      6719      6722      6721      6719      6722
      6724      6723      6725      6724      6723      6726      6725      6723      6726
      6727      6733      6730      6728      6727      6729      6728      6727      6733
      6729      6727      6733      6730      6734      6735      6731      6730      6732
      6731      6730      6733      6731      6730      6734      6732      6730      6733
      6732      6730      6734      6733      6730      6734      6734      6735      6736
      6734      6735      6737      6734      6735      6738      6735      6738      6739
      6735      6738      6740      6735      6738      6746      6736      6735      6737
      6736      6735      6738      6737      6735      6738      6738      6740      6741
      6738      6746      6747      6738      6746      6748      6738      6746      6749
      6739      6738      6740      6739      6738      6746      6740      6738      6746
      6740      6741      6742      6740      6741      6743      6741      6743      6744
      6741      6743      6745      6741      6743      6755      6742      6741      6743
      6743      6755      6756      6743      6755      6757      6743      6755      6758
      6744      6743      6745      6744      6743      6755      6745      6743      6755
      6746      6749      6750      6747      6746      6748      6747      6746      6749
      6748      6746      6749      6749      6750      6751      6749      6750      6752
      6750      6752      6753      6750      6752      6754      6750      6752      6802
      6751      6750      6752      6752      6802      6803      6752      6802      6804
      6752      6802      6805      6753      6752      6754      6753      6752      6802
      6754      6752      6802      6755      6758      6759      6755      6758      6760
      6755      6758      6761      6756      6755      6757      6756      6755      6758
      6757      6755      6758      6758      6761      6762      6758      6761      6763
      6758      6761      6764      6759      6758      6760      6759      6758      6761
      6760      6758      6761      6761      6764      6765      6761      6764      6766
      6761      6764      6767      6762      6761      6763      6762      6761      6764
      6763      6761      6764      6764      6767      6768      6764      6767      6769
      6764      6767      6770      6765      6764      6766      6765      6764      6767
      6766      6764      6767      6767      6770      6771      6767      6770      6772
      6767      6770      6773      6768      6767      6769      6768      6767      6770
      6769      6767      6770      6770      6773      6774      6770      6773      6775
      6771      6770      6772      6771      6770      6773      6772      6770      6773
      6773      6775      6776      6773      6775      6777      6774      6773      6775
      6775      6777      6778      6775      6777      6779      6775      6777      6780
      6776      6775      6777      6777      6780      6781      6777      6780      6782
      6777      6780      6783      6778      6777      6779      6778      6777      6780
      6779      6777      6780      6780      6783      6784      6780      6783      6785
      6780      6783      6786      6781      6780      6782      6781      6780      6783
      6782      6780      6783      6783      6786      6787      6783      6786      6788
      6783      6786      6789      6784      6783      6785      6784      6783      6786
      6785      6783      6786      6786      6789      6790      6786      6789      6791
      6786      6789      6792      6787      6786      6788      6787      6786      6789
      6788      6786      6789      6789      6792      6793      6789      6792      6794
      6789      6792      6795      6790      6789      6791      6790      6789      6792
      6791      6789      6792      6792      6795      6796      6792      6795      6797
      6792      6795      6798      6793      6792      6794      6793      6792      6795
      6794      6792      6795      6795      6798      6799      6795      6798      6800
      6795      6798      6801      6796      6795      6797      6796      6795      6798
      6797      6795      6798      6799      6798      6800      6799      6798      6801
      6800      6798      6801      6802      6805      6806      6802      6805      6807
      6802      6805      6808      6803      6802      6804      6803      6802      6805
      6804      6802      6805      6805      6808      6809      6805      6808      6810
      6805      6808      6811      6806      6805      6807      6806      6805      6808
      6807      6805      6808      6808      6811      6812      6808      6811      6813
      6808      6811      6814      6809      6808      6810      6809      6808      6811
      6810      6808      6811      6811      6814      6815      6811      6814      6816
      6811      6814      6817      6812      6811      6813      6812      6811      6814
      6813      6811      6814      6814      6817      6818      6814      6817      6819
      6814      6817      6820      6815      6814      6816      6815      6814      6817
      6816      6814      6817      6817      6820      6821      6817      6820      6822
      6818      6817      6819      6818      6817      6820      6819      6817      6820
      6820      6822      6823      6820      6822      6824      6821      6820      6822
      6822      6824      6825      6822      6824      6826      6822      6824      6827
      6823      6822      6824      6824      6827      6828      6824      6827      6829
      6824      6827      6830      6825      6824      6826      6825      6824      6827
      6826      6824      6827      6827      6830      6831      6827      6830      6832
      6827      6830      6833      6828      6827      6829      6828      6827      6830
      6829      6827      6830      6830      6833      6834      6830      6833      6835
      6830      6833      6836      6831      6830      6832      6831      6830      6833
      6832      6830      6833      6833      6836      6837      6833      6836      6838
      6833      6836      6839      6834      6833      6835      6834      6833      6836
      6835      6833      6836      6836      6839      6840      6836      6839      6841
      6836      6839      6842      6837      6836      6838      6837      6836      6839
      6838      6836      6839      6839      6842      6843      6839      6842      6844
      6839      6842      6845      6840      6839      6841      6840      6839      6842
      6841      6839      6842      6842      6845      6846      6842      6845      6847
      6842      6845      6848      6843      6842      6844      6843      6842      6845
      6844      6842      6845      6846      6845      6847      6846      6845      6848
      6847      6845      6848      6849      6850      6851      6849      6850      6852
      6849      6850      6865      6849      6853      6854      6849      6853      6855
      6849      6853      6856      6849      6857      6858      6849      6857      6859
      6849      6857      6860      6849      6861      6862      6849      6861      6863
      6849      6861      6864      6850      6849      6853      6850      6849      6857
      6850      6849      6861      6850      6865      6866      6850      6865      6867
      6850      6865      6871      6851      6850      6852      6851      6850      6865
      6852      6850      6865      6853      6849      6857      6853      6849      6861
      6854      6853      6855      6854      6853      6856      6855      6853      6856
      6857      6849      6861      6858      6857      6859      6858      6857      6860
      6859      6857      6860      6862      6861      6863      6862      6861      6864
      6863      6861      6864      6865      6871      6868      6866      6865      6867
      6866      6865      6871      6867      6865      6871      6868      6872      6873
      6869      6868      6870      6869      6868      6871      6869      6868      6872
      6870      6868      6871      6870      6868      6872      6871      6868      6872
      6872      6873      6874      6872      6873      6875      6872      6873      6876
      6873      6876      6877      6873      6876      6878      6873      6876      6884
      6874      6873      6875      6874      6873      6876      6875      6873      6876
      6876      6878      6879      6876      6884      6885      6876      6884      6886
      6876      6884      6887      6877      6876      6878      6877      6876      6884
      6878      6876      6884      6878      6879      6880      6878      6879      6881
      6879      6881      6882      6879      6881      6883      6879      6881      6893
      6880      6879      6881      6881      6893      6894      6881      6893      6895
      6881      6893      6896      6882      6881      6883      6882      6881      6893
      6883      6881      6893      6884      6887      6888      6885      6884      6886
      6885      6884      6887      6886      6884      6887      6887      6888      6889
      6887      6888      6890      6888      6890      6891      6888      6890      6892
      6888      6890      6940      6889      6888      6890      6890      6940      6941
      6890      6940      6942      6890      6940      6943      6891      6890      6892
      6891      6890      6940      6892      6890      6940      6893      6896      6897
      6893      6896      6898      6893      6896      6899      6894      6893      6895
      6894      6893      6896      6895      6893      6896      6896      6899      6900
      6896      6899      6901      6896      6899      6902      6897      6896      6898
      6897      6896      6899      6898      6896      6899      6899      6902      6903
      6899      6902      6904      6899      6902      6905      6900      6899      6901
      6900      6899      6902      6901      6899      6902      6902      6905      6906
      6902      6905      6907      6902      6905      6908      6903      6902      6904
      6903      6902      6905      6904      6902      6905      6905      6908      6909
      6905      6908      6910      6905      6908      6911      6906      6905      6907
      6906      6905      6908      6907      6905      6908      6908      6911      6912
      6908      6911      6913      6909      6908      6910      6909      6908      6911
      6910      6908      6911      6911      6913      6914      6911      6913      6915
      6912      6911      6913      6913      6915      6916      6913      6915      6917
      6913      6915      6918      6914      6913      6915      6915      6918      6919
      6915      6918      6920      6915      6918      6921      6916      6915      6917
      6916      6915      6918      6917      6915      6918      6918      6921      6922
      6918      6921      6923      6918      6921      6924      6919      6918      6920
      6919      6918      6921      6920      6918      6921      6921      6924      6925
      6921      6924      6926      6921      6924      6927      6922      6921      6923
      6922      6921      6924      6923      6921      6924      6924      6927      6928
      6924      6927      6929      6924      6927      6930      6925      6924      6926
      6925      6924      6927      6926      6924      6927      6927      6930      6931
      6927      6930      6932      6927      6930      6933      6928      6927      6929
      6928      6927      6930      6929      6927      6930      6930      6933      6934
      6930      6933      6935      6930      6933      6936      6931      6930      6932
      6931      6930      6933      6932      6930      6933      6933      6936      6937
      6933      6936      6938      6933      6936      6939      6934      6933      6935
      6934      6933      6936      6935      6933      6936      6937      6936      6938
      6937      6936      6939      6938      6936      6939      6940      6943      6944
      6940      6943      6945      6940      6943      6946      6941      6940      6942
      6941      6940      6943      6942      6940      6943      6943      6946      6947
      6943      6946      6948      6943      6946      6949      6944      6943      6945
      6944      6943      6946      6945      6943      6946      6946      6949      6950
      6946      6949      6951      6946      6949      6952      6947      6946      6948
      6947      6946      6949      6948      6946      6949      6949      6952      6953
      6949      6952      6954      6949      6952      6955      6950      6949      6951
      6950      6949      6952      6951      6949      6952      6952      6955      6956
      6952      6955      6957      6952      6955      6958      6953      6952      6954
      6953      6952      6955      6954      6952      6955      6955      6958      6959
      6955      6958      6960      6956      6955      6957      6956      6955      6958
      6957      6955      6958      6958      6960      6961      6958      6960      6962
      6959      6958      6960      6960      6962      6963      6960      6962      6964
      6960      6962      6965      6961      6960      6962      6962      6965      6966
      6962      6965      6967      6962      6965      6968      6963      6962      6964
      6963      6962      6965      6964      6962      6965      6965      6968      6969
      6965      6968      6970      6965      6968      6971      6966      6965      6967
      6966      6965      6968      6967      6965      6968      6968      6971      6972
      6968      6971      6973      6968      6971      6974      6969      6968      6970
      6969      6968      6971      6970      6968      6971      6971      6974      6975
      6971      6974      6976      6971      6974      6977      6972      6971      6973
      6972      6971      6974      6973      6971      6974      6974      6977      6978
      6974      6977      6979      6974      6977      6980      6975      6974      6976
      6975      6974      6977      6976      6974      6977      6977      6980      6981
      6977      6980      6982      6977      6980      6983      6978      6977      6979
      6978      6977      6980      6979      6977      6980      6980      6983      6984
      6980      6983      6985      6980      6983      6986      6981      6980      6982
      6981      6980      6983      6982      6980      6983      6984      6983      6985
      6984      6983      6986      6985      6983      6986      6987      6988      6989
      6987      6988      6990      6987      6988      7003      6987      6991      6992
      6987      6991      6993      6987      6991      6994      6987      6995      6996
      6987      6995      6997      6987      6995      6998      6987      6999      7000
      6987      6999      7001      6987      6999      7002      6988      6987      6991
      6988      6987      6995      6988      6987      6999      6988      7003      7004
      6988      7003      7005      6988      7003      7009      6989      6988      6990
      6989      6988      7003      6990      6988      7003      6991      6987      6995
      6991      6987      6999      6992      6991      6993      6992      6991      6994
      6993      6991      6994      6995      6987      6999      6996      6995      6997
      6996      6995      6998      6997      6995      6998      7000      6999      7001
      7000      6999      7002      7001      6999      7002      7003      7009      7006
      7004      7003      7005      7004      7003      7009      7005      7003      7009
      7006      7010      7011      7007      7006      7008      7007      7006      7009
      7007      7006      7010      7008      7006      7009      7008      7006      7010
      7009      7006      7010      7010      7011      7012      7010      7011      7013
      7010      7011      7014      7011      7014      7015      7011      7014      7016
      7011      7014      7022      7012      7011      7013      7012      7011      7014
      7013      7011      7014      7014      7016      7017      7014      7022      7023
      7014      7022      7024      7014      7022      7025      7015      7014      7016
      7015      7014      7022      7016      7014      7022      7016      7017      7018
      7016      7017      7019      7017      7019      7020      7017      7019      7021
      7017      7019      7031      7018      7017      7019      7019      7031      7032
      7019      7031      7033      7019      7031      7034      7020      7019      7021
      7020      7019      7031      7021      7019      7031      7022      7025      7026
      7023      7022      7024      7023      7022      7025      7024      7022      7025
      7025      7026      7027      7025      7026      7028      7026      7028      7029
      7026      7028      7030      7026      7028      7078      7027      7026      7028
      7028      7078      7079      7028      7078      7080      7028      7078      7081
      7029      7028      7030      7029      7028      7078      7030      7028      7078
      7031      7034      7035      7031      7034      7036      7031      7034      7037
      7032      7031      7033      7032      7031      7034      7033      7031      7034
      7034      7037      7038      7034      7037      7039      7034      7037      7040
      7035      7034      7036      7035      7034      7037      7036      7034      7037
      7037      7040      7041      7037      7040      7042      7037      7040      7043
      7038      7037      7039      7038      7037      7040      7039      7037      7040
      7040      7043      7044      7040      7043      7045      7040      7043      7046
      7041      7040      7042      7041      7040      7043      7042      7040      7043
      7043      7046      7047      7043      7046      7048      7043      7046      7049
      7044      7043      7045      7044      7043      7046      7045      7043      7046
      7046      7049      7050      7046      7049      7051      7047      7046      7048
      7047      7046      7049      7048      7046      7049      7049      7051      7052
      7049      7051      7053      7050      7049      7051      7051      7053      7054
      7051      7053      7055      7051      7053      7056      7052      7051      7053
      7053      7056      7057      7053      7056      7058      7053      7056      7059
      7054      7053      7055      7054      7053      7056      7055      7053      7056
      7056      7059      7060      7056      7059      7061      7056      7059      7062
      7057      7056      7058      7057      7056      7059      7058      7056      7059
      7059      7062      7063      7059      7062      7064      7059      7062      7065
      7060      7059      7061      7060      7059      7062      7061      7059      7062
      7062      7065      7066      7062      7065      7067      7062      7065      7068
      7063      7062      7064      7063      7062      7065      7064      7062      7065
      7065      7068      7069      7065      7068      7070      7065      7068      7071
      7066      7065      7067      7066      7065      7068      7067      7065      7068
      7068      7071      7072      7068      7071      7073      7068      7071      7074
      7069      7068      7070      7069      7068      7071      7070      7068      7071
      7071      7074      7075      7071      7074      7076      7071      7074      7077
      7072      7071      7073      7072      7071      7074      7073      7071      7074
      7075      7074      7076      7075      7074      7077      7076      7074      7077
      7078      7081      7082      7078      7081      7083      7078      7081      7084
      7079      7078      7080      7079      7078      7081      7080      7078      7081
      7081      7084      7085      7081      7084      7086      7081      7084      7087
      7082      7081      7083      7082      7081      7084      7083      7081      7084
      7084      7087      7088      7084      7087      7089      7084      7087      7090
      7085      7084      7086      7085      7084      7087      7086      7084      7087
      7087      7090      7091      7087      7090      7092      7087      7090      7093
      7088      7087      7089      7088      7087      7090      7089      7087      7090
      7090      7093      7094      7090      7093      7095      7090      7093      7096
      7091      7090      7092      7091      7090      7093      7092      7090      7093
      7093      7096      7097      7093      7096      7098      7094      7093      7095
      7094      7093      7096      7095      7093      7096      7096      7098      7099
      7096      7098      7100      7097      7096      7098      7098      7100      7101
      7098      7100      7102      7098      7100      7103      7099      7098      7100
      7100      7103      7104      7100      7103      7105      7100      7103      7106
      7101      7100      7102      7101      7100      7103      7102      7100      7103
      7103      7106      7107      7103      7106      7108      7103      7106      7109
      7104      7103      7105      7104      7103      7106      7105      7103      7106
      7106      7109      7110      7106      7109      7111      7106      7109      7112
      7107      7106      7108      7107      7106      7109      7108      7106      7109
      7109      7112      7113      7109      7112      7114      7109      7112      7115
      7110      7109      7111      7110      7109      7112      7111      7109      7112
      7112      7115      7116      7112      7115      7117      7112      7115      7118
      7113      7112      7114      7113      7112      7115      7114      7112      7115
      7115      7118      7119      7115      7118      7120      7115      7118      7121
      7116      7115      7117      7116      7115      7118      7117      7115      7118
      7118      7121      7122      7118      7121      7123      7118      7121      7124
      7119      7118      7120      7119      7118      7121      7120      7118      7121
      7122      7121      7123      7122      7121      7124      7123      7121      7124
      7125      7126      7127      7125      7126      7128      7125      7126      7141
      7125      7129      7130      7125      7129      7131      7125      7129      7132
      7125      7133      7134      7125      7133      7135      7125      7133      7136
      7125      7137      7138      7125      7137      7139      7125      7137      7140
      7126      7125      7129      7126      7125      7133      7126      7125      7137
      7126      7141      7142      7126      7141      7143      7126      7141      7147
      7127      7126      7128      7127      7126      7141      7128      7126      7141
      7129      7125      7133      7129      7125      7137      7130      7129      7131
      7130      7129      7132      7131      7129      7132      7133      7125      7137
      7134      7133      7135      7134      7133      7136      7135      7133      7136
      7138      7137      7139      7138      7137      7140      7139      7137      7140
      7141      7147      7144      7142      7141      7143      7142      7141      7147
      7143      7141      7147      7144      7148      7149      7145      7144      7146
      7145      7144      7147      7145      7144      7148      7146      7144      7147
      7146      7144      7148      7147      7144      7148      7148      7149      7150
      7148      7149      7151      7148      7149      7152      7149      7152      7153
      7149      7152      7154      7149      7152      7160      7150      7149      7151
      7150      7149      7152      7151      7149      7152      7152      7154      7155
      7152      7160      7161      7152      7160      7162      7152      7160      7163
      7153      7152      7154      7153      7152      7160      7154      7152      7160
      7154      7155      7156      7154      7155      7157      7155      7157      7158
      7155      7157      7159      7155      7157      7169      7156      7155      7157
      7157      7169      7170      7157      7169      7171      7157      7169      7172
      7158      7157      7159      7158      7157      7169      7159      7157      7169
      7160      7163      7164      7161      7160      7162      7161      7160      7163
      7162      7160      7163      7163      7164      7165      7163      7164      7166
      7164      7166      7167      7164      7166      7168      7164      7166      7216
      7165      7164      7166      7166      7216      7217      7166      7216      7218
      7166      7216      7219      7167      7166      7168      7167      7166      7216
      7168      7166      7216      7169      7172      7173      7169      7172      7174
      7169      7172      7175      7170      7169      7171      7170      7169      7172
      7171      7169      7172      7172      7175      7176      7172      7175      7177
      7172      7175      7178      7173      7172      7174      7173      7172      7175
      7174      7172      7175      7175      7178      7179      7175      7178      7180
      7175      7178      7181      7176      7175      7177      7176      7175      7178
      7177      7175      7178      7178      7181      7182      7178      7181      7183
      7178      7181      7184      7179      7178      7180      7179      7178      7181
      7180      7178      7181      7181      7184      7185      7181      7184      7186
      7181      7184      7187      7182      7181      7183      7182      7181      7184
      7183      7181      7184      7184      7187      7188      7184      7187      7189
      7185      7184      7186      7185      7184      7187      7186      7184      7187
      7187      7189      7190      7187      7189      7191      7188      7187      7189
      7189      7191      7192      7189      7191      7193      7189      7191      7194
      7190      7189      7191      7191      7194      7195      7191      7194      7196
      7191      7194      7197      7192      7191      7193      7192      7191      7194
      7193      7191      7194      7194      7197      7198      7194      7197      7199
      7194      7197      7200      7195      7194      7196      7195      7194      7197
      7196      7194      7197      7197      7200      7201      7197      7200      7202
      7197      7200      7203      7198      7197      7199      7198      7197      7200
      7199      7197      7200      7200      7203      7204      7200      7203      7205
      7200      7203      7206      7201      7200      7202      7201      7200      7203
      7202      7200      7203      7203      7206      7207      7203      7206      7208
      7203      7206      7209      7204      7203      7205      7204      7203      7206
      7205      7203      7206      7206      7209      7210      7206      7209      7211
      7206      7209      7212      7207      7206      7208      7207      7206      7209
      7208      7206      7209      7209      7212      7213      7209      7212      7214
      7209      7212      7215      7210      7209      7211      7210      7209      7212
      7211      7209      7212      7213      7212      7214      7213      7212      7215
      7214      7212      7215      7216      7219      7220      7216      7219      7221
      7216      7219      7222      7217      7216      7218      7217      7216      7219
      7218      7216      7219      7219      7222      7223      7219      7222      7224
      7219      7222      7225      7220      7219      7221      7220      7219      7222
      7221      7219      7222      7222      7225      7226      7222      7225      7227
      7222      7225      7228      7223      7222      7224      7223      7222      7225
      7224      7222      7225      7225      7228      7229      7225      7228      7230
      7225      7228      7231      7226      7225      7227      7226      7225      7228
      7227      7225      7228      7228      7231      7232      7228      7231      7233
      7228      7231      7234      7229      7228      7230      7229      7228      7231
      7230      7228      7231      7231      7234      7235      7231      7234      7236
      7232      7231      7233      7232      7231      7234      7233      7231      7234
      7234      7236      7237      7234      7236      7238      7235      7234      7236
      7236      7238      7239      7236      7238      7240      7236      7238      7241
      7237      7236      7238      7238      7241      7242      7238      7241      7243
      7238      7241      7244      7239      7238      7240      7239      7238      7241
      7240      7238      7241      7241      7244      7245      7241      7244      7246
      7241      7244      7247      7242      7241      7243      7242      7241      7244
      7243      7241      7244      7244      7247      7248      7244      7247      7249
      7244      7247      7250      7245      7244      7246      7245      7244      7247
      7246      7244      7247      7247      7250      7251      7247      7250      7252
      7247      7250      7253      7248      7247      7249      7248      7247      7250
      7249      7247      7250      7250      7253      7254      7250      7253      7255
      7250      7253      7256      7251      7250      7252      7251      7250      7253
      7252      7250      7253      7253      7256      7257      7253      7256      7258
      7253      7256      7259      7254      7253      7255      7254      7253      7256
      7255      7253      7256      7256      7259      7260      7256      7259      7261
      7256      7259      7262      7257      7256      7258      7257      7256      7259
      7258      7256      7259      7260      7259      7261      7260      7259      7262
      7261      7259      7262      7263      7264      7265      7263      7264      7266
      7263      7264      7279      7263      7267      7268      7263      7267      7269
      7263      7267      7270      7263      7271      7272      7263      7271      7273
      7263      7271      7274      7263      7275      7276      7263      7275      7277
      7263      7275      7278      7264      7263      7267      7264      7263      7271
      7264      7263      7275      7264      7279      7280      7264      7279      7281
      7264      7279      7285      7265      7264      7266      7265      7264      7279
      7266      7264      7279      7267      7263      7271      7267      7263      7275
      7268      7267      7269      7268      7267      7270      7269      7267      7270
      7271      7263      7275      7272      7271      7273      7272      7271      7274
      7273      7271      7274      7276      7275      7277      7276      7275      7278
      7277      7275      7278      7279      7285      7282      7280      7279      7281
      7280      7279      7285      7281      7279      7285      7282      7286      7287
      7283      7282      7284      7283      7282      7285      7283      7282      7286
      7284      7282      7285      7284      7282      7286      7285      7282      7286
      7286      7287      7288      7286      7287      7289      7286      7287      7290
      7287      7290      7291      7287      7290      7292      7287      7290      7298
      7288      7287      7289      7288      7287      7290      7289      7287      7290
      7290      7292      7293      7290      7298      7299      7290      7298      7300
      7290      7298      7301      7291      7290      7292      7291      7290      7298
      7292      7290      7298      7292      7293      7294      7292      7293      7295
      7293      7295      7296      7293      7295      7297      7293      7295      7307
      7294      7293      7295      7295      7307      7308      7295      7307      7309
      7295      7307      7310      7296      7295      7297      7296      7295      7307
      7297      7295      7307      7298      7301      7302      7299      7298      7300
      7299      7298      7301      7300      7298      7301      7301      7302      7303
      7301      7302      7304      7302      7304      7305      7302      7304      7306
      7302      7304      7354      7303      7302      7304      7304      7354      7355
      7304      7354      7356      7304      7354      7357      7305      7304      7306
      7305      7304      7354      7306      7304      7354      7307      7310      7311
      7307      7310      7312      7307      7310      7313      7308      7307      7309
      7308      7307      7310      7309      7307      7310      7310      7313      7314
      7310      7313      7315      7310      7313      7316      7311      7310      7312
      7311      7310      7313      7312      7310      7313      7313      7316      7317
      7313      7316      7318      7313      7316      7319      7314      7313      7315
      7314      7313      7316      7315      7313      7316      7316      7319      7320
      7316      7319      7321      7316      7319      7322      7317      7316      7318
      7317      7316      7319      7318      7316      7319      7319      7322      7323
      7319      7322      7324      7319      7322      7325      7320      7319      7321
      7320      7319      7322      7321      7319      7322      7322      7325      7326
      7322      7325      7327      7323      7322      7324      7323      7322      7325
      7324      7322      7325      7325      7327      7328      7325      7327      7329
      7326      7325      7327      7327      7329      7330      7327      7329      7331
      7327      7329      7332      7328      7327      7329      7329      7332      7333
      7329      7332      7334      7329      7332      7335      7330      7329      7331
      7330      7329      7332      7331      7329      7332      7332      7335      7336
      7332      7335      7337      7332      7335      7338      7333      7332      7334
      7333      7332      7335      7334      7332      7335      7335      7338      7339
      7335      7338      7340      7335      7338      7341      7336      7335      7337
      7336      7335      7338      7337      7335      7338      7338      7341      7342
      7338      7341      7343      7338      7341      7344      7339      7338      7340
      7339      7338      7341      7340      7338      7341      7341      7344      7345
      7341      7344      7346      7341      7344      7347      7342      7341      7343
      7342      7341      7344      7343      7341      7344      7344      7347      7348
      7344      7347      7349      7344      7347      7350      7345      7344      7346
      7345      7344      7347      7346      7344      7347      7347      7350      7351
      7347      7350      7352      7347      7350      7353      7348      7347      7349
      7348      7347      7350      7349      7347      7350      7351      7350      7352
      7351      7350      7353      7352      7350      7353      7354      7357      7358
      7354      7357      7359      7354      7357      7360      7355      7354      7356
      7355      7354      7357      7356      7354      7357      7357      7360      7361
      7357      7360      7362      7357      7360      7363      7358      7357      7359
      7358      7357      7360      7359      7357      7360      7360      7363      7364
      7360      7363      7365      7360      7363      7366      7361      7360      7362
      7361      7360      7363      7362      7360      7363      7363      7366      7367
      7363      7366      7368      7363      7366      7369      7364      7363      7365
      7364      7363      7366      7365      7363      7366      7366      7369      7370
      7366      7369      7371      7366      7369      7372      7367      7366      7368
      7367      7366      7369      7368      7366      7369      7369      7372      7373
      7369      7372      7374      7370      7369      7371      7370      7369      7372
      7371      7369      7372      7372      7374      7375      7372      7374      7376
      7373      7372      7374      7374      7376      7377      7374      7376      7378
      7374      7376      7379      7375      7374      7376      7376      7379      7380
      7376      7379      7381      7376      7379      7382      7377      7376      7378
      7377      7376      7379      7378      7376      7379      7379      7382      7383
      7379      7382      7384      7379      7382      7385      7380      7379      7381
      7380      7379      7382      7381      7379      7382      7382      7385      7386
      7382      7385      7387      7382      7385      7388      7383      7382      7384
      7383      7382      7385      7384      7382      7385      7385      7388      7389
      7385      7388      7390      7385      7388      7391      7386      7385      7387
      7386      7385      7388      7387      7385      7388      7388      7391      7392
      7388      7391      7393      7388      7391      7394      7389      7388      7390
      7389      7388      7391      7390      7388      7391      7391      7394      7395
      7391      7394      7396      7391      7394      7397      7392      7391      7393
      7392      7391      7394      7393      7391      7394      7394      7397      7398
      7394      7397      7399      7394      7397      7400      7395      7394      7396
      7395      7394      7397      7396      7394      7397      7398      7397      7399
      7398      7397      7400      7399      7397      7400      7401      7402      7403
      7401      7402      7404      7401      7402      7417      7401      7405      7406
      7401      7405      7407      7401      7405      7408      7401      7409      7410
      7401      7409      7411      7401      7409      7412      7401      7413      7414
      7401      7413      7415      7401      7413      7416      7402      7401      7405
      7402      7401      7409      7402      7401      7413      7402      7417      7418
      7402      7417      7419      7402      7417      7423      7403      7402      7404
      7403      7402      7417      7404      7402      7417      7405      7401      7409
      7405      7401      7413      7406      7405      7407      7406      7405      7408
      7407      7405      7408      7409      7401      7413      7410      7409      7411
      7410      7409      7412      7411      7409      7412      7414      7413      7415
      7414      7413      7416      7415      7413      7416      7417      7423      7420
      7418      7417      7419      7418      7417      7423      7419      7417      7423
      7420      7424      7425      7421      7420      7422      7421      7420      7423
      7421      7420      7424      7422      7420      7423      7422      7420      7424
      7423      7420      7424      7424      7425      7426      7424      7425      7427
      7424      7425      7428      7425      7428      7429      7425      7428      7430
      7425      7428      7436      7426      7425      7427      7426      7425      7428
      7427      7425      7428      7428      7430      7431      7428      7436      7437
      7428      7436      7438      7428      7436      7439      7429      7428      7430
      7429      7428      7436      7430      7428      7436      7430      7431      7432
      7430      7431      7433      7431      7433      7434      7431      7433      7435
      7431      7433      7445      7432      7431      7433      7433      7445      7446
      7433      7445      7447      7433      7445      7448      7434      7433      7435
      7434      7433      7445      7435      7433      7445      7436      7439      7440
      7437      7436      7438      7437      7436      7439      7438      7436      7439
      7439      7440      7441      7439      7440      7442      7440      7442      7443
      7440      7442      7444      7440      7442      7492      7441      7440      7442
      7442      7492      7493      7442      7492      7494      7442      7492      7495
      7443      7442      7444      7443      7442      7492      7444      7442      7492
      7445      7448      7449      7445      7448      7450      7445      7448      7451
      7446      7445      7447      7446      7445      7448      7447      7445      7448
      7448      7451      7452      7448      7451      7453      7448      7451      7454
      7449      7448      7450      7449      7448      7451      7450      7448      7451
      7451      7454      7455      7451      7454      7456      7451      7454      7457
      7452      7451      7453      7452      7451      7454      7453      7451      7454
      7454      7457      7458      7454      7457      7459      7454      7457      7460
      7455      7454      7456      7455      7454      7457      7456      7454      7457
      7457      7460      7461      7457      7460      7462      7457      7460      7463
      7458      7457      7459      7458      7457      7460      7459      7457      7460
      7460      7463      7464      7460      7463      7465      7461      7460      7462
      7461      7460      7463      7462      7460      7463      7463      7465      7466
      7463      7465      7467      7464      7463      7465      7465      7467      7468
      7465      7467      7469      7465      7467      7470      7466      7465      7467
      7467      7470      7471      7467      7470      7472      7467      7470      7473
      7468      7467      7469      7468      7467      7470      7469      7467      7470
      7470      7473      7474      7470      7473      7475      7470      7473      7476
      7471      7470      7472      7471      7470      7473      7472      7470      7473
      7473      7476      7477      7473      7476      7478      7473      7476      7479
      7474      7473      7475      7474      7473      7476      7475      7473      7476
      7476      7479      7480      7476      7479      7481      7476      7479      7482
      7477      7476      7478      7477      7476      7479      7478      7476      7479
      7479      7482      7483      7479      7482      7484      7479      7482      7485
      7480      7479      7481      7480      7479      7482      7481      7479      7482
      7482      7485      7486      7482      7485      7487      7482      7485      7488
      7483      7482      7484      7483      7482      7485      7484      7482      7485
      7485      7488      7489      7485      7488      7490      7485      7488      7491
      7486      7485      7487      7486      7485      7488      7487      7485      7488
      7489      7488      7490      7489      7488      7491      7490      7488      7491
      7492      7495      7496      7492      7495      7497      7492      7495      7498
      7493      7492      7494      7493      7492      7495      7494      7492      7495
      7495      7498      7499      7495      7498      7500      7495      7498      7501
      7496      7495      7497      7496      7495      7498      7497      7495      7498
      7498      7501      7502      7498      7501      7503      7498      7501      7504
      7499      7498      7500      7499      7498      7501      7500      7498      7501
      7501      7504      7505      7501      7504      7506      7501      7504      7507
      7502      7501      7503      7502      7501      7504      7503      7501      7504
      7504      7507      7508      7504      7507      7509      7504      7507      7510
      7505      7504      7506      7505      7504      7507      7506      7504      7507
      7507      7510      7511      7507      7510      7512      7508      7507      7509
      7508      7507      7510      7509      7507      7510      7510      7512      7513
      7510      7512      7514      7511      7510      7512      7512      7514      7515
      7512      7514      7516      7512      7514      7517      7513      7512      7514
      7514      7517      7518      7514      7517      7519      7514      7517      7520
      7515      7514      7516      7515      7514      7517      7516      7514      7517
      7517      7520      7521      7517      7520      7522      7517      7520      7523
      7518      7517      7519      7518      7517      7520      7519      7517      7520
      7520      7523      7524      7520      7523      7525      7520      7523      7526
      7521      7520      7522      7521      7520      7523      7522      7520      7523
      7523      7526      7527      7523      7526      7528      7523      7526      7529
      7524      7523      7525      7524      7523      7526      7525      7523      7526
      7526      7529      7530      7526      7529      7531      7526      7529      7532
      7527      7526      7528      7527      7526      7529      7528      7526      7529
      7529      7532      7533      7529      7532      7534      7529      7532      7535
      7530      7529      7531      7530      7529      7532      7531      7529      7532
      7532      7535      7536      7532      7535      7537      7532      7535      7538
      7533      7532      7534      7533      7532      7535      7534      7532      7535
      7536      7535      7537      7536      7535      7538      7537      7535      7538
      7539      7540      7541      7539      7540      7542      7539      7540      7555
      7539      7543      7544      7539      7543      7545      7539      7543      7546
      7539      7547      7548      7539      7547      7549      7539      7547      7550
      7539      7551      7552      7539      7551      7553      7539      7551      7554
      7540      7539      7543      7540      7539      7547      7540      7539      7551
      7540      7555      7556      7540      7555      7557      7540      7555      7561
      7541      7540      7542      7541      7540      7555      7542      7540      7555
      7543      7539      7547      7543      7539      7551      7544      7543      7545
      7544      7543      7546      7545      7543      7546      7547      7539      7551
      7548      7547      7549      7548      7547      7550      7549      7547      7550
      7552      7551      7553      7552      7551      7554      7553      7551      7554
      7555      7561      7558      7556      7555      7557      7556      7555      7561
      7557      7555      7561      7558      7562      7563      7559      7558      7560
      7559      7558      7561      7559      7558      7562      7560      7558      7561
      7560      7558      7562      7561      7558      7562      7562      7563      7564
      7562      7563      7565      7562      7563      7566      7563      7566      7567
      7563      7566      7568      7563      7566      7574      7564      7563      7565
      7564      7563      7566      7565      7563      7566      7566      7568      7569
      7566      7574      7575      7566      7574      7576      7566      7574      7577
      7567      7566      7568      7567      7566      7574      7568      7566      7574
      7568      7569      7570      7568      7569      7571      7569      7571      7572
      7569      7571      7573      7569      7571      7583      7570      7569      7571
      7571      7583      7584      7571      7583      7585      7571      7583      7586
      7572      7571      7573      7572      7571      7583      7573      7571      7583
      7574      7577      7578      7575      7574      7576      7575      7574      7577
      7576      7574      7577      7577      7578      7579      7577      7578      7580
      7578      7580      7581      7578      7580      7582      7578      7580      7630
      7579      7578      7580      7580      7630      7631      7580      7630      7632
      7580      7630      7633      7581      7580      7582      7581      7580      7630
      7582      7580      7630      7583      7586      7587      7583      7586      7588
      7583      7586      7589      7584      7583      7585      7584      7583      7586
      7585      7583      7586      7586      7589      7590      7586      7589      7591
      7586      7589      7592      7587      7586      7588      7587      7586      7589
      7588      7586      7589      7589      7592      7593      7589      7592      7594
      7589      7592      7595      7590      7589      7591      7590      7589      7592
      7591      7589      7592      7592      7595      7596      7592      7595      7597
      7592      7595      7598      7593      7592      7594      7593      7592      7595
      7594      7592      7595      7595      7598      7599      7595      7598      7600
      7595      7598      7601      7596      7595      7597      7596      7595      7598
      7597      7595      7598      7598      7601      7602      7598      7601      7603
      7599      7598      7600      7599      7598      7601      7600      7598      7601
      7601      7603      7604      7601      7603      7605      7602      7601      7603
      7603      7605      7606      7603      7605      7607      7603      7605      7608
      7604      7603      7605      7605      7608      7609      7605      7608      7610
      7605      7608      7611      7606      7605      7607      7606      7605      7608
      7607      7605      7608      7608      7611      7612      7608      7611      7613
      7608      7611      7614      7609      7608      7610      7609      7608      7611
      7610      7608      7611      7611      7614      7615      7611      7614      7616
      7611      7614      7617      7612      7611      7613      7612      7611      7614
      7613      7611      7614      7614      7617      7618      7614      7617      7619
      7614      7617      7620      7615      7614      7616      7615      7614      7617
      7616      7614      7617      7617      7620      7621      7617      7620      7622
      7617      7620      7623      7618      7617      7619      7618      7617      7620
      7619      7617      7620      7620      7623      7624      7620      7623      7625
      7620      7623      7626      7621      7620      7622      7621      7620      7623
      7622      7620      7623      7623      7626      7627      7623      7626      7628
      7623      7626      7629      7624      7623      7625      7624      7623      7626
      7625      7623      7626      7627      7626      7628      7627      7626      7629
      7628      7626      7629      7630      7633      7634      7630      7633      7635
      7630      7633      7636      7631      7630      7632      7631      7630      7633
      7632      7630      7633      7633      7636      7637      7633      7636      7638
      7633      7636      7639      7634      7633      7635      7634      7633      7636
      7635      7633      7636      7636      7639      7640      7636      7639      7641
      7636      7639      7642      7637      7636      7638      7637      7636      7639
      7638      7636      7639      7639      7642      7643      7639      7642      7644
      7639      7642      7645      7640      7639      7641      7640      7639      7642
      7641      7639      7642      7642      7645      7646      7642      7645      7647
      7642      7645      7648      7643      7642      7644      7643      7642      7645
      7644      7642      7645      7645      7648      7649      7645      7648      7650
      7646      7645      7647      7646      7645      7648      7647      7645      7648
      7648      7650      7651      7648      7650      7652      7649      7648      7650
      7650      7652      7653      7650      7652      7654      7650      7652      7655
      7651      7650      7652      7652      7655      7656      7652      7655      7657
      7652      7655      7658      7653      7652      7654      7653      7652      7655
      7654      7652      7655      7655      7658      7659      7655      7658      7660
      7655      7658      7661      7656      7655      7657      7656      7655      7658
      7657      7655      7658      7658      7661      7662      7658      7661      7663
      7658      7661      7664      7659      7658      7660      7659      7658      7661
      7660      7658      7661      7661      7664      7665      7661      7664      7666
      7661      7664      7667      7662      7661      7663      7662      7661      7664
      7663      7661      7664      7664      7667      7668      7664      7667      7669
      7664      7667      7670      7665      7664      7666      7665      7664      7667
      7666      7664      7667      7667      7670      7671      7667      7670      7672
      7667      7670      7673      7668      7667      7669      7668      7667      7670
      7669      7667      7670      7670      7673      7674      7670      7673      7675
      7670      7673      7676      7671      7670      7672      7671      7670      7673
      7672      7670      7673      7674      7673      7675      7674      7673      7676
      7675      7673      7676      7677      7678      7679      7677      7678      7680
      7677      7678      7693      7677      7681      7682      7677      7681      7683
      7677      7681      7684      7677      7685      7686      7677      7685      7687
      7677      7685      7688      7677      7689      7690      7677      7689      7691
      7677      7689      7692      7678      7677      7681      7678      7677      7685
      7678      7677      7689      7678      7693      7694      7678      7693      7695
      7678      7693      7699      7679      7678      7680      7679      7678      7693
      7680      7678      7693      7681      7677      7685      7681      7677      7689
      7682      7681      7683      7682      7681      7684      7683      7681      7684
      7685      7677      7689      7686      7685      7687      7686      7685      7688
      7687      7685      7688      7690      7689      7691      7690      7689      7692
      7691      7689      7692      7693      7699      7696      7694      7693      7695
      7694      7693      7699      7695      7693      7699      7696      7700      7701
      7697      7696      7698      7697      7696      7699      7697      7696      7700
      7698      7696      7699      7698      7696      7700      7699      7696      7700
      7700      7701      7702      7700      7701      7703      7700      7701      7704
      7701      7704      7705      7701      7704      7706      7701      7704      7712
      7702      7701      7703      7702      7701      7704      7703      7701      7704
      7704      7706      7707      7704      7712      7713      7704      7712      7714
      7704      7712      7715      7705      7704      7706      7705      7704      7712
      7706      7704      7712      7706      7707      7708      7706      7707      7709
      7707      7709      7710      7707      7709      7711      7707      7709      7721
      7708      7707      7709      7709      7721      7722      7709      7721      7723
      7709      7721      7724      7710      7709      7711      7710      7709      7721
      7711      7709      7721      7712      7715      7716      7713      7712      7714
      7713      7712      7715      7714      7712      7715      7715      7716      7717
      7715      7716      7718      7716      7718      7719      7716      7718      7720
      7716      7718      7768      7717      7716      7718      7718      7768      7769
      7718      7768      7770      7718      7768      7771      7719      7718      7720
      7719      7718      7768      7720      7718      7768      7721      7724      7725
      7721      7724      7726      7721      7724      7727      7722      7721      7723
      7722      7721      7724      7723      7721      7724      7724      7727      7728
      7724      7727      7729      7724      7727      7730      7725      7724      7726
      7725      7724      7727      7726      7724      7727      7727      7730      7731
      7727      7730      7732      7727      7730      7733      7728      7727      7729
      7728      7727      7730      7729      7727      7730      7730      7733      7734
      7730      7733      7735      7730      7733      7736      7731      7730      7732
      7731      7730      7733      7732      7730      7733      7733      7736      7737
      7733      7736      7738      7733      7736      7739      7734      7733      7735
      7734      7733      7736      7735      7733      7736      7736      7739      7740
      7736      7739      7741      7737      7736      7738      7737      7736      7739
      7738      7736      7739      7739      7741      7742      7739      7741      7743
      7740      7739      7741      7741      7743      7744      7741      7743      7745
      7741      7743      7746      7742      7741      7743      7743      7746      7747
      7743      7746      7748      7743      7746      7749      7744      7743      7745
      7744      7743      7746      7745      7743      7746      7746      7749      7750
      7746      7749      7751      7746      7749      7752      7747      7746      7748
      7747      7746      7749      7748      7746      7749      7749      7752      7753
      7749      7752      7754      7749      7752      7755      7750      7749      7751
      7750      7749      7752      7751      7749      7752      7752      7755      7756
      7752      7755      7757      7752      7755      7758      7753      7752      7754
      7753      7752      7755      7754      7752      7755      7755      7758      7759
      7755      7758      7760      7755      7758      7761      7756      7755      7757
      7756      7755      7758      7757      7755      7758      7758      7761      7762
      7758      7761      7763      7758      7761      7764      7759      7758      7760
      7759      7758      7761      7760      7758      7761      7761      7764      7765
      7761      7764      7766      7761      7764      7767      7762      7761      7763
      7762      7761      7764      7763      7761      7764      7765      7764      7766
      7765      7764      7767      7766      7764      7767      7768      7771      7772
      7768      7771      7773      7768      7771      7774      7769      7768      7770
      7769      7768      7771      7770      7768      7771      7771      7774      7775
      7771      7774      7776      7771      7774      7777      7772      7771      7773
      7772      7771      7774      7773      7771      7774      7774      7777      7778
      7774      7777      7779      7774      7777      7780      7775      7774      7776
      7775      7774      7777      7776      7774      7777      7777      7780      7781
      7777      7780      7782      7777      7780      7783      7778      7777      7779
      7778      7777      7780      7779      7777      7780      7780      7783      7784
      7780      7783      7785      7780      7783      7786      7781      7780      7782
      7781      7780      7783      7782      7780      7783      7783      7786      7787
      7783      7786      7788      7784      7783      7785      7784      7783      7786
      7785      7783      7786      7786      7788      7789      7786      7788      7790
      7787      7786      7788      7788      7790      7791      7788      7790      7792
      7788      7790      7793      7789      7788      7790      7790      7793      7794
      7790      7793      7795      7790      7793      7796      7791      7790      7792
      7791      7790      7793      7792      7790      7793      7793      7796      7797
      7793      7796      7798      7793      7796      7799      7794      7793      7795
      7794      7793      7796      7795      7793      7796      7796      7799      7800
      7796      7799      7801      7796      7799      7802      7797      7796      7798
      7797      7796      7799      7798      7796      7799      7799      7802      7803
      7799      7802      7804      7799      7802      7805      7800      7799      7801
      7800      7799      7802      7801      7799      7802      7802      7805      7806
      7802      7805      7807      7802      7805      7808      7803      7802      7804
      7803      7802      7805      7804      7802      7805      7805      7808      7809
      7805      7808      7810      7805      7808      7811      7806      7805      7807
      7806      7805      7808      7807      7805      7808      7808      7811      7812
      7808      7811      7813      7808      7811      7814      7809      7808      7810
      7809      7808      7811      7810      7808      7811      7812      7811      7813
      7812      7811      7814      7813      7811      7814      7815      7816      7817
      7815      7816      7818      7815      7816      7831      7815      7819      7820
      7815      7819      7821      7815      7819      7822      7815      7823      7824
      7815      7823      7825      7815      7823      7826      7815      7827      7828
      7815      7827      7829      7815      7827      7830      7816      7815      7819
      7816      7815      7823      7816      7815      7827      7816      7831      7832
      7816      7831      7833      7816      7831      7837      7817      7816      7818
      7817      7816      7831      7818      7816      7831      7819      7815      7823
      7819      7815      7827      7820      7819      7821      7820      7819      7822
      7821      7819      7822      7823      7815      7827      7824      7823      7825
      7824      7823      7826      7825      7823      7826      7828      7827      7829
      7828      7827      7830      7829      7827      7830      7831      7837      7834
      7832      7831      7833      7832      7831      7837      7833      7831      7837
      7834      7838      7839      7835      7834      7836      7835      7834      7837
      7835      7834      7838      7836      7834      7837      7836      7834      7838
      7837      7834      7838      7838      7839      7840      7838      7839      7841
      7838      7839      7842      7839      7842      7843      7839      7842      7844
      7839      7842      7850      7840      7839      7841      7840      7839      7842
      7841      7839      7842      7842      7844      7845      7842      7850      7851
      7842      7850      7852      7842      7850      7853      7843      7842      7844
      7843      7842      7850      7844      7842      7850      7844      7845      7846
      7844      7845      7847      7845      7847      7848      7845      7847      7849
      7845      7847      7859      7846      7845      7847      7847      7859      7860
      7847      7859      7861      7847      7859      7862      7848      7847      7849
      7848      7847      7859      7849      7847      7859      7850      7853      7854
      7851      7850      7852      7851      7850      7853      7852      7850      7853
      7853      7854      7855      7853      7854      7856      7854      7856      7857
      7854      7856      7858      7854      7856      7906      7855      7854      7856
      7856      7906      7907      7856      7906      7908      7856      7906      7909
      7857      7856      7858      7857      7856      7906      7858      7856      7906
      7859      7862      7863      7859      7862      7864      7859      7862      7865
      7860      7859      7861      7860      7859      7862      7861      7859      7862
      7862      7865      7866      7862      7865      7867      7862      7865      7868
      7863      7862      7864      7863      7862      7865      7864      7862      7865
      7865      7868      7869      7865      7868      7870      7865      7868      7871
      7866      7865      7867      7866      7865      7868      7867      7865      7868
      7868      7871      7872      7868      7871      7873      7868      7871      7874
      7869      7868      7870      7869      7868      7871      7870      7868      7871
      7871      7874      7875      7871      7874      7876      7871      7874      7877
      7872      7871      7873      7872      7871      7874      7873      7871      7874
      7874      7877      7878      7874      7877      7879      7875      7874      7876
      7875      7874      7877      7876      7874      7877      7877      7879      7880
      7877      7879      7881      7878      7877      7879      7879      7881      7882
      7879      7881      7883      7879      7881      7884      7880      7879      7881
      7881      7884      7885      7881      7884      7886      7881      7884      7887
      7882      7881      7883      7882      7881      7884      7883      7881      7884
      7884      7887      7888      7884      7887      7889      7884      7887      7890
      7885      7884      7886      7885      7884      7887      7886      7884      7887
      7887      7890      7891      7887      7890      7892      7887      7890      7893
      7888      7887      7889      7888      7887      7890      7889      7887      7890
      7890      7893      7894      7890      7893      7895      7890      7893      7896
      7891      7890      7892      7891      7890      7893      7892      7890      7893
      7893      7896      7897      7893      7896      7898      7893      7896      7899
      7894      7893      7895      7894      7893      7896      7895      7893      7896
      7896      7899      7900      7896      7899      7901      7896      7899      7902
      7897      7896      7898      7897      7896      7899      7898      7896      7899
      7899      7902      7903      7899      7902      7904      7899      7902      7905
      7900      7899      7901      7900      7899      7902      7901      7899      7902
      7903      7902      7904      7903      7902      7905      7904      7902      7905
      7906      7909      7910      7906      7909      7911      7906      7909      7912
      7907      7906      7908      7907      7906      7909      7908      7906      7909
      7909      7912      7913      7909      7912      7914      7909      7912      7915
      7910      7909      7911      7910      7909      7912      7911      7909      7912
      7912      7915      7916      7912      7915      7917      7912      7915      7918
      7913      7912      7914      7913      7912      7915      7914      7912      7915
      7915      7918      7919      7915      7918      7920      7915      7918      7921
      7916      7915      7917      7916      7915      7918      7917      7915      7918
      7918      7921      7922      7918      7921      7923      7918      7921      7924
      7919      7918      7920      7919      7918      7921      7920      7918      7921
      7921      7924      7925      7921      7924      7926      7922      7921      7923
      7922      7921      7924      7923      7921      7924      7924      7926      7927
      7924      7926      7928      7925      7924      7926      7926      7928      7929
      7926      7928      7930      7926      7928      7931      7927      7926      7928
      7928      7931      7932      7928      7931      7933      7928      7931      7934
      7929      7928      7930      7929      7928      7931      7930      7928      7931
      7931      7934      7935      7931      7934      7936      7931      7934      7937
      7932      7931      7933      7932      7931      7934      7933      7931      7934
      7934      7937      7938      7934      7937      7939      7934      7937      7940
      7935      7934      7936      7935      7934      7937      7936      7934      7937
      7937      7940      7941      7937      7940      7942      7937      7940      7943
      7938      7937      7939      7938      7937      7940      7939      7937      7940
      7940      7943      7944      7940      7943      7945      7940      7943      7946
      7941      7940      7942      7941      7940      7943      7942      7940      7943
      7943      7946      7947      7943      7946      7948      7943      7946      7949
      7944      7943      7945      7944      7943      7946      7945      7943      7946
      7946      7949      7950      7946      7949      7951      7946      7949      7952
      7947      7946      7948      7947      7946      7949      7948      7946      7949
      7950      7949      7951      7950      7949      7952      7951      7949      7952
      7953      7954      7955      7953      7954      7956      7953      7954      7969
      7953      7957      7958      7953      7957      7959      7953      7957      7960
      7953      7961      7962      7953      7961      7963      7953      7961      7964
      7953      7965      7966      7953      7965      7967      7953      7965      7968
      7954      7953      7957      7954      7953      7961      7954      7953      7965
      7954      7969      7970      7954      7969      7971      7954      7969      7975
      7955      7954      7956      7955      7954      7969      7956      7954      7969
      7957      7953      7961      7957      7953      7965      7958      7957      7959
      7958      7957      7960      7959      7957      7960      7961      7953      7965
      7962      7961      7963      7962      7961      7964      7963      7961      7964
      7966      7965      7967      7966      7965      7968      7967      7965      7968
      7969      7975      7972      7970      7969      7971      7970      7969      7975
      7971      7969      7975      7972      7976      7977      7973      7972      7974
      7973      7972      7975      7973      7972      7976      7974      7972      7975
      7974      7972      7976      7975      7972      7976      7976      7977      7978
      7976      7977      7979      7976      7977      7980      7977      7980      7981
      7977      7980      7982      7977      7980      7988      7978      7977      7979
      7978      7977      7980      7979      7977      7980      7980      7982      7983
      7980      7988      7989      7980      7988      7990      7980      7988      7991
      7981      7980      7982      7981      7980      7988      7982      7980      7988
      7982      7983      7984      7982      7983      7985      7983      7985      7986
      7983      7985      7987      7983      7985      7997      7984      7983      7985
      7985      7997      7998      7985      7997      7999      7985      7997      8000
      7986      7985      7987      7986      7985      7997      7987      7985      7997
      7988      7991      7992      7989      7988      7990      7989      7988      7991
      7990      7988      7991      7991      7992      7993      7991      7992      7994
      7992      7994      7995      7992      7994      7996      7992      7994      8044
      7993      7992      7994      7994      8044      8045      7994      8044      8046
      7994      8044      8047      7995      7994      7996      7995      7994      8044
      7996      7994      8044      7997      8000      8001      7997      8000      8002
      7997      8000      8003      7998      7997      7999      7998      7997      8000
      7999      7997      8000      8000      8003      8004      8000      8003      8005
      8000      8003      8006      8001      8000      8002      8001      8000      8003
      8002      8000      8003      8003      8006      8007      8003      8006      8008
      8003      8006      8009      8004      8003      8005      8004      8003      8006
      8005      8003      8006      8006      8009      8010      8006      8009      8011
      8006      8009      8012      8007      8006      8008      8007      8006      8009
      8008      8006      8009      8009      8012      8013      8009      8012      8014
      8009      8012      8015      8010      8009      8011      8010      8009      8012
      8011      8009      8012      8012      8015      8016      8012      8015      8017
      8013      8012      8014      8013      8012      8015      8014      8012      8015
      8015      8017      8018      8015      8017      8019      8016      8015      8017
      8017      8019      8020      8017      8019      8021      8017      8019      8022
      8018      8017      8019      8019      8022      8023      8019      8022      8024
      8019      8022      8025      8020      8019      8021      8020      8019      8022
      8021      8019      8022      8022      8025      8026      8022      8025      8027
      8022      8025      8028      8023      8022      8024      8023      8022      8025
      8024      8022      8025      8025      8028      8029      8025      8028      8030
      8025      8028      8031      8026      8025      8027      8026      8025      8028
      8027      8025      8028      8028      8031      8032      8028      8031      8033
      8028      8031      8034      8029      8028      8030      8029      8028      8031
      8030      8028      8031      8031      8034      8035      8031      8034      8036
      8031      8034      8037      8032      8031      8033      8032      8031      8034
      8033      8031      8034      8034      8037      8038      8034      8037      8039
      8034      8037      8040      8035      8034      8036      8035      8034      8037
      8036      8034      8037      8037      8040      8041      8037      8040      8042
      8037      8040      8043      8038      8037      8039      8038      8037      8040
      8039      8037      8040      8041      8040      8042      8041      8040      8043
      8042      8040      8043      8044      8047      8048      8044      8047      8049
      8044      8047      8050      8045      8044      8046      8045      8044      8047
      8046      8044      8047      8047      8050      8051      8047      8050      8052
      8047      8050      8053      8048      8047      8049      8048      8047      8050
      8049      8047      8050      8050      8053      8054      8050      8053      8055
      8050      8053      8056      8051      8050      8052      8051      8050      8053
      8052      8050      8053      8053      8056      8057      8053      8056      8058
      8053      8056      8059      8054      8053      8055      8054      8053      8056
      8055      8053      8056      8056      8059      8060      8056      8059      8061
      8056      8059      8062      8057      8056      8058      8057      8056      8059
      8058      8056      8059      8059      8062      8063      8059      8062      8064
      8060      8059      8061      8060      8059      8062      8061      8059      8062
      8062      8064      8065      8062      8064      8066      8063      8062      8064
      8064      8066      8067      8064      8066      8068      8064      8066      8069
      8065      8064      8066      8066      8069      8070      8066      8069      8071
      8066      8069      8072      8067      8066      8068      8067      8066      8069
      8068      8066      8069      8069      8072      8073      8069      8072      8074
      8069      8072      8075      8070      8069      8071      8070      8069      8072
      8071      8069      8072      8072      8075      8076      8072      8075      8077
      8072      8075      8078      8073      8072      8074      8073      8072      8075
      8074      8072      8075      8075      8078      8079      8075      8078      8080
      8075      8078      8081      8076      8075      8077      8076      8075      8078
      8077      8075      8078      8078      8081      8082      8078      8081      8083
      8078      8081      8084      8079      8078      8080      8079      8078      8081
      8080      8078      8081      8081      8084      8085      8081      8084      8086
      8081      8084      8087      8082      8081      8083      8082      8081      8084
      8083      8081      8084      8084      8087      8088      8084      8087      8089
      8084      8087      8090      8085      8084      8086      8085      8084      8087
      8086      8084      8087      8088      8087      8089      8088      8087      8090
      8089      8087      8090      8091      8092      8093      8091      8092      8094
      8091      8092      8107      8091      8095      8096      8091      8095      8097
      8091      8095      8098      8091      8099      8100      8091      8099      8101
      8091      8099      8102      8091      8103      8104      8091      8103      8105
      8091      8103      8106      8092      8091      8095      8092      8091      8099
      8092      8091      8103      8092      8107      8108      8092      8107      8109
      8092      8107      8113      8093      8092      8094      8093      8092      8107
      8094      8092      8107      8095      8091      8099      8095      8091      8103
      8096      8095      8097      8096      8095      8098      8097      8095      8098
      8099      8091      8103      8100      8099      8101      8100      8099      8102
      8101      8099      8102      8104      8103      8105      8104      8103      8106
      8105      8103      8106      8107      8113      8110      8108      8107      8109
      8108      8107      8113      8109      8107      8113      8110      8114      8115
      8111      8110      8112      8111      8110      8113      8111      8110      8114
      8112      8110      8113      8112      8110      8114      8113      8110      8114
      8114      8115      8116      8114      8115      8117      8114      8115      8118
      8115      8118      8119      8115      8118      8120      8115      8118      8126
      8116      8115      8117      8116      8115      8118      8117      8115      8118
      8118      8120      8121      8118      8126      8127      8118      8126      8128
      8118      8126      8129      8119      8118      8120      8119      8118      8126
      8120      8118      8126      8120      8121      8122      8120      8121      8123
      8121      8123      8124      8121      8123      8125      8121      8123      8135
      8122      8121      8123      8123      8135      8136      8123      8135      8137
      8123      8135      8138      8124      8123      8125      8124      8123      8135
      8125      8123      8135      8126      8129      8130      8127      8126      8128
      8127      8126      8129      8128      8126      8129      8129      8130      8131
      8129      8130      8132      8130      8132      8133      8130      8132      8134
      8130      8132      8182      8131      8130      8132      8132      8182      8183
      8132      8182      8184      8132      8182      8185      8133      8132      8134
      8133      8132      8182      8134      8132      8182      8135      8138      8139
      8135      8138      8140      8135      8138      8141      8136      8135      8137
      8136      8135      8138      8137      8135      8138      8138      8141      8142
      8138      8141      8143      8138      8141      8144      8139      8138      8140
      8139      8138      8141      8140      8138      8141      8141      8144      8145
      8141      8144      8146      8141      8144      8147      8142      8141      8143
      8142      8141      8144      8143      8141      8144      8144      8147      8148
      8144      8147      8149      8144      8147      8150      8145      8144      8146
      8145      8144      8147      8146      8144      8147      8147      8150      8151
      8147      8150      8152      8147      8150      8153      8148      8147      8149
      8148      8147      8150      8149      8147      8150      8150      8153      8154
      8150      8153      8155      8151      8150      8152      8151      8150      8153
      8152      8150      8153      8153      8155      8156      8153      8155      8157
      8154      8153      8155      8155      8157      8158      8155      8157      8159
      8155      8157      8160      8156      8155      8157      8157      8160      8161
      8157      8160      8162      8157      8160      8163      8158      8157      8159
      8158      8157      8160      8159      8157      8160      8160      8163      8164
      8160      8163      8165      8160      8163      8166      8161      8160      8162
      8161      8160      8163      8162      8160      8163      8163      8166      8167
      8163      8166      8168      8163      8166      8169      8164      8163      8165
      8164      8163      8166      8165      8163      8166      8166      8169      8170
      8166      8169      8171      8166      8169      8172      8167      8166      8168
      8167      8166      8169      8168      8166      8169      8169      8172      8173
      8169      8172      8174      8169      8172      8175      8170      8169      8171
      8170      8169      8172      8171      8169      8172      8172      8175      8176
      8172      8175      8177      8172      8175      8178      8173      8172      8174
      8173      8172      8175      8174      8172      8175      8175      8178      8179
      8175      8178      8180      8175      8178      8181      8176      8175      8177
      8176      8175      8178      8177      8175      8178      8179      8178      8180
      8179      8178      8181      8180      8178      8181      8182      8185      8186
      8182      8185      8187      8182      8185      8188      8183      8182      8184
      8183      8182      8185      8184      8182      8185      8185      8188      8189
      8185      8188      8190      8185      8188      8191      8186      8185      8187
      8186      8185      8188      8187      8185      8188      8188      8191      8192
      8188      8191      8193      8188      8191      8194      8189      8188      8190
      8189      8188      8191      8190      8188      8191      8191      8194      8195
      8191      8194      8196      8191      8194      8197      8192      8191      8193
      8192      8191      8194      8193      8191      8194      8194      8197      8198
      8194      8197      8199      8194      8197      8200      8195      8194      8196
      8195      8194      8197      8196      8194      8197      8197      8200      8201
      8197      8200      8202      8198      8197      8199      8198      8197      8200
      8199      8197      8200      8200      8202      8203      8200      8202      8204
      8201      8200      8202      8202      8204      8205      8202      8204      8206
      8202      8204      8207      8203      8202      8204      8204      8207      8208
      8204      8207      8209      8204      8207      8210      8205      8204      8206
      8205      8204      8207      8206      8204      8207      8207      8210      8211
      8207      8210      8212      8207      8210      8213      8208      8207      8209
      8208      8207      8210      8209      8207      8210      8210      8213      8214
      8210      8213      8215      8210      8213      8216      8211      8210      8212
      8211      8210      8213      8212      8210      8213      8213      8216      8217
      8213      8216      8218      8213      8216      8219      8214      8213      8215
      8214      8213      8216      8215      8213      8216      8216      8219      8220
      8216      8219      8221      8216      8219      8222      8217      8216      8218
      8217      8216      8219      8218      8216      8219      8219      8222      8223
      8219      8222      8224      8219      8222      8225      8220      8219      8221
      8220      8219      8222      8221      8219      8222      8222      8225      8226
      8222      8225      8227      8222      8225      8228      8223      8222      8224
      8223      8222      8225      8224      8222      8225      8226      8225      8227
      8226      8225      8228      8227      8225      8228      8229      8230      8231
      8229      8230      8232      8229      8230      8245      8229      8233      8234
      8229      8233      8235      8229      8233      8236      8229      8237      8238
      8229      8237      8239      8229      8237      8240      8229      8241      8242
      8229      8241      8243      8229      8241      8244      8230      8229      8233
      8230      8229      8237      8230      8229      8241      8230      8245      8246
      8230      8245      8247      8230      8245      8251      8231      8230      8232
      8231      8230      8245      8232      8230      8245      8233      8229      8237
      8233      8229      8241      8234      8233      8235      8234      8233      8236
      8235      8233      8236      8237      8229      8241      8238      8237      8239
      8238      8237      8240      8239      8237      8240      8242      8241      8243
      8242      8241      8244      8243      8241      8244      8245      8251      8248
      8246      8245      8247      8246      8245      8251      8247      8245      8251
      8248      8252      8253      8249      8248      8250      8249      8248      8251
      8249      8248      8252      8250      8248      8251      8250      8248      8252
      8251      8248      8252      8252      8253      8254      8252      8253      8255
      8252      8253      8256      8253      8256      8257      8253      8256      8258
      8253      8256      8264      8254      8253      8255      8254      8253      8256
      8255      8253      8256      8256      8258      8259      8256      8264      8265
      8256      8264      8266      8256      8264      8267      8257      8256      8258
      8257      8256      8264      8258      8256      8264      8258      8259      8260
      8258      8259      8261      8259      8261      8262      8259      8261      8263
      8259      8261      8273      8260      8259      8261      8261      8273      8274
      8261      8273      8275      8261      8273      8276      8262      8261      8263
      8262      8261      8273      8263      8261      8273      8264      8267      8268
      8265      8264      8266      8265      8264      8267      8266      8264      8267
      8267      8268      8269      8267      8268      8270      8268      8270      8271
      8268      8270      8272      8268      8270      8320      8269      8268      8270
      8270      8320      8321      8270      8320      8322      8270      8320      8323
      8271      8270      8272      8271      8270      8320      8272      8270      8320
      8273      8276      8277      8273      8276      8278      8273      8276      8279
      8274      8273      8275      8274      8273      8276      8275      8273      8276
      8276      8279      8280      8276      8279      8281      8276      8279      8282
      8277      8276      8278      8277      8276      8279      8278      8276      8279
      8279      8282      8283      8279      8282      8284      8279      8282      8285
      8280      8279      8281      8280      8279      8282      8281      8279      8282
      8282      8285      8286      8282      8285      8287      8282      8285      8288
      8283      8282      8284      8283      8282      8285      8284      8282      8285
      8285      8288      8289      8285      8288      8290      8285      8288      8291
      8286      8285      8287      8286      8285      8288      8287      8285      8288
      8288      8291      8292      8288      8291      8293      8289      8288      8290
      8289      8288      8291      8290      8288      8291      8291      8293      8294
      8291      8293      8295      8292      8291      8293      8293      8295      8296
      8293      8295      8297      8293      8295      8298      8294      8293      8295
      8295      8298      8299      8295      8298      8300      8295      8298      8301
      8296      8295      8297      8296      8295      8298      8297      8295      8298
      8298      8301      8302      8298      8301      8303      8298      8301      8304
      8299      8298      8300      8299      8298      8301      8300      8298      8301
      8301      8304      8305      8301      8304      8306      8301      8304      8307
      8302      8301      8303      8302      8301      8304      8303      8301      8304
      8304      8307      8308      8304      8307      8309      8304      8307      8310
      8305      8304      8306      8305      8304      8307      8306      8304      8307
      8307      8310      8311      8307      8310      8312      8307      8310      8313
      8308      8307      8309      8308      8307      8310      8309      8307      8310
      8310      8313      8314      8310      8313      8315      8310      8313      8316
      8311      8310      8312      8311      8310      8313      8312      8310      8313
      8313      8316      8317      8313      8316      8318      8313      8316      8319
      8314      8313      8315      8314      8313      8316      8315      8313      8316
      8317      8316      8318      8317      8316      8319      8318      8316      8319
      8320      8323      8324      8320      8323      8325      8320      8323      8326
      8321      8320      8322      8321      8320      8323      8322      8320      8323
      8323      8326      8327      8323      8326      8328      8323      8326      8329
      8324      8323      8325      8324      8323      8326      8325      8323      8326
      8326      8329      8330      8326      8329      8331      8326      8329      8332
      8327      8326      8328      8327      8326      8329      8328      8326      8329
      8329      8332      8333      8329      8332      8334      8329      8332      8335
      8330      8329      8331      8330      8329      8332      8331      8329      8332
      8332      8335      8336      8332      8335      8337      8332      8335      8338
      8333      8332      8334      8333      8332      8335      8334      8332      8335
      8335      8338      8339      8335      8338      8340      8336      8335      8337
      8336      8335      8338      8337      8335      8338      8338      8340      8341
      8338      8340      8342      8339      8338      8340      8340      8342      8343
      8340      8342      8344      8340      8342      8345      8341      8340      8342
      8342      8345      8346      8342      8345      8347      8342      8345      8348
      8343      8342      8344      8343      8342      8345      8344      8342      8345
      8345      8348      8349      8345      8348      8350      8345      8348      8351
      8346      8345      8347      8346      8345      8348      8347      8345      8348
      8348      8351      8352      8348      8351      8353      8348      8351      8354
      8349      8348      8350      8349      8348      8351      8350      8348      8351
      8351      8354      8355      8351      8354      8356      8351      8354      8357
      8352      8351      8353      8352      8351      8354      8353      8351      8354
      8354      8357      8358      8354      8357      8359      8354      8357      8360
      8355      8354      8356      8355      8354      8357      8356      8354      8357
      8357      8360      8361      8357      8360      8362      8357      8360      8363
      8358      8357      8359      8358      8357      8360      8359      8357      8360
      8360      8363      8364      8360      8363      8365      8360      8363      8366
      8361      8360      8362      8361      8360      8363      8362      8360      8363
      8364      8363      8365      8364      8363      8366      8365      8363      8366
      8367      8368      8369      8367      8368      8370      8367      8368      8383
      8367      8371      8372      8367      8371      8373      8367      8371      8374
      8367      8375      8376      8367      8375      8377      8367      8375      8378
      8367      8379      8380      8367      8379      8381      8367      8379      8382
      8368      8367      8371      8368      8367      8375      8368      8367      8379
      8368      8383      8384      8368      8383      8385      8368      8383      8389
      8369      8368      8370      8369      8368      8383      8370      8368      8383
      8371      8367      8375      8371      8367      8379      8372      8371      8373
      8372      8371      8374      8373      8371      8374      8375      8367      8379
      8376      8375      8377      8376      8375      8378      8377      8375      8378
      8380      8379      8381      8380      8379      8382      8381      8379      8382
      8383      8389      8386      8384      8383      8385      8384      8383      8389
      8385      8383      8389      8386      8390      8391      8387      8386      8388
      8387      8386      8389      8387      8386      8390      8388      8386      8389
      8388      8386      8390      8389      8386      8390      8390      8391      8392
      8390      8391      8393      8390      8391      8394      8391      8394      8395
      8391      8394      8396      8391      8394      8402      8392      8391      8393
      8392      8391      8394      8393      8391      8394      8394      8396      8397
      8394      8402      8403      8394      8402      8404      8394      8402      8405
      8395      8394      8396      8395      8394      8402      8396      8394      8402
      8396      8397      8398      8396      8397      8399      8397      8399      8400
      8397      8399      8401      8397      8399      8411      8398      8397      8399
      8399      8411      8412      8399      8411      8413      8399      8411      8414
      8400      8399      8401      8400      8399      8411      8401      8399      8411
      8402      8405      8406      8403      8402      8404      8403      8402      8405
      8404      8402      8405      8405      8406      8407      8405      8406      8408
      8406      8408      8409      8406      8408      8410      8406      8408      8458
      8407      8406      8408      8408      8458      8459      8408      8458      8460
      8408      8458      8461      8409      8408      8410      8409      8408      8458
      8410      8408      8458      8411      8414      8415      8411      8414      8416
      8411      8414      8417      8412      8411      8413      8412      8411      8414
      8413      8411      8414      8414      8417      8418      8414      8417      8419
      8414      8417      8420      8415      8414      8416      8415      8414      8417
      8416      8414      8417      8417      8420      8421      8417      8420      8422
      8417      8420      8423      8418      8417      8419      8418      8417      8420
      8419      8417      8420      8420      8423      8424      8420      8423      8425
      8420      8423      8426      8421      8420      8422      8421      8420      8423
      8422      8420      8423      8423      8426      8427      8423      8426      8428
      8423      8426      8429      8424      8423      8425      8424      8423      8426
      8425      8423      8426      8426      8429      8430      8426      8429      8431
      8427      8426      8428      8427      8426      8429      8428      8426      8429
      8429      8431      8432      8429      8431      8433      8430      8429      8431
      8431      8433      8434      8431      8433      8435      8431      8433      8436
      8432      8431      8433      8433      8436      8437      8433      8436      8438
      8433      8436      8439      8434      8433      8435      8434      8433      8436
      8435      8433      8436      8436      8439      8440      8436      8439      8441
      8436      8439      8442      8437      8436      8438      8437      8436      8439
      8438      8436      8439      8439      8442      8443      8439      8442      8444
      8439      8442      8445      8440      8439      8441      8440      8439      8442
      8441      8439      8442      8442      8445      8446      8442      8445      8447
      8442      8445      8448      8443      8442      8444      8443      8442      8445
      8444      8442      8445      8445      8448      8449      8445      8448      8450
      8445      8448      8451      8446      8445      8447      8446      8445      8448
      8447      8445      8448      8448      8451      8452      8448      8451      8453
      8448      8451      8454      8449      8448      8450      8449      8448      8451
      8450      8448      8451      8451      8454      8455      8451      8454      8456
      8451      8454      8457      8452      8451      8453      8452      8451      8454
      8453      8451      8454      8455      8454      8456      8455      8454      8457
      8456      8454      8457      8458      8461      8462      8458      8461      8463
      8458      8461      8464      8459      8458      8460      8459      8458      8461
      8460      8458      8461      8461      8464      8465      8461      8464      8466
      8461      8464      8467      8462      8461      8463      8462      8461      8464
      8463      8461      8464      8464      8467      8468      8464      8467      8469
      8464      8467      8470      8465      8464      8466      8465      8464      8467
      8466      8464      8467      8467      8470      8471      8467      8470      8472
      8467      8470      8473      8468      8467      8469      8468      8467      8470
      8469      8467      8470      8470      8473      8474      8470      8473      8475
      8470      8473      8476      8471      8470      8472      8471      8470      8473
      8472      8470      8473      8473      8476      8477      8473      8476      8478
      8474      8473      8475      8474      8473      8476      8475      8473      8476
      8476      8478      8479      8476      8478      8480      8477      8476      8478
      8478      8480      8481      8478      8480      8482      8478      8480      8483
      8479      8478      8480      8480      8483      8484      8480      8483      8485
      8480      8483      8486      8481      8480      8482      8481      8480      8483
      8482      8480      8483      8483      8486      8487      8483      8486      8488
      8483      8486      8489      8484      8483      8485      8484      8483      8486
      8485      8483      8486      8486      8489      8490      8486      8489      8491
      8486      8489      8492      8487      8486      8488      8487      8486      8489
      8488      8486      8489      8489      8492      8493      8489      8492      8494
      8489      8492      8495      8490      8489      8491      8490      8489      8492
      8491      8489      8492      8492      8495      8496      8492      8495      8497
      8492      8495      8498      8493      8492      8494      8493      8492      8495
      8494      8492      8495      8495      8498      8499      8495      8498      8500
      8495      8498      8501      8496      8495      8497      8496      8495      8498
      8497      8495      8498      8498      8501      8502      8498      8501      8503
      8498      8501      8504      8499      8498      8500      8499      8498      8501
      8500      8498      8501      8502      8501      8503      8502      8501      8504
      8503      8501      8504      8505      8506      8507      8505      8506      8508
      8505      8506      8521      8505      8509      8510      8505      8509      8511
      8505      8509      8512      8505      8513      8514      8505      8513      8515
      8505      8513      8516      8505      8517      8518      8505      8517      8519
      8505      8517      8520      8506      8505      8509      8506      8505      8513
      8506      8505      8517      8506      8521      8522      8506      8521      8523
      8506      8521      8527      8507      8506      8508      8507      8506      8521
      8508      8506      8521      8509      8505      8513      8509      8505      8517
      8510      8509      8511      8510      8509      8512      8511      8509      8512
      8513      8505      8517      8514      8513      8515      8514      8513      8516
      8515      8513      8516      8518      8517      8519      8518      8517      8520
      8519      8517      8520      8521      8527      8524      8522      8521      8523
      8522      8521      8527      8523      8521      8527      8524      8528      8529
      8525      8524      8526      8525      8524      8527      8525      8524      8528
      8526      8524      8527      8526      8524      8528      8527      8524      8528
      8528      8529      8530      8528      8529      8531      8528      8529      8532
      8529      8532      8533      8529      8532      8534      8529      8532      8540
      8530      8529      8531      8530      8529      8532      8531      8529      8532
      8532      8534      8535      8532      8540      8541      8532      8540      8542
      8532      8540      8543      8533      8532      8534      8533      8532      8540
      8534      8532      8540      8534      8535      8536      8534      8535      8537
      8535      8537      8538      8535      8537      8539      8535      8537      8549
      8536      8535      8537      8537      8549      8550      8537      8549      8551
      8537      8549      8552      8538      8537      8539      8538      8537      8549
      8539      8537      8549      8540      8543      8544      8541      8540      8542
      8541      8540      8543      8542      8540      8543      8543      8544      8545
      8543      8544      8546      8544      8546      8547      8544      8546      8548
      8544      8546      8596      8545      8544      8546      8546      8596      8597
      8546      8596      8598      8546      8596      8599      8547      8546      8548
      8547      8546      8596      8548      8546      8596      8549      8552      8553
      8549      8552      8554      8549      8552      8555      8550      8549      8551
      8550      8549      8552      8551      8549      8552      8552      8555      8556
      8552      8555      8557      8552      8555      8558      8553      8552      8554
      8553      8552      8555      8554      8552      8555      8555      8558      8559
      8555      8558      8560      8555      8558      8561      8556      8555      8557
      8556      8555      8558      8557      8555      8558      8558      8561      8562
      8558      8561      8563      8558      8561      8564      8559      8558      8560
      8559      8558      8561      8560      8558      8561      8561      8564      8565
      8561      8564      8566      8561      8564      8567      8562      8561      8563
      8562      8561      8564      8563      8561      8564      8564      8567      8568
      8564      8567      8569      8565      8564      8566      8565      8564      8567
      8566      8564      8567      8567      8569      8570      8567      8569      8571
      8568      8567      8569      8569      8571      8572      8569      8571      8573
      8569      8571      8574      8570      8569      8571      8571      8574      8575
      8571      8574      8576      8571      8574      8577      8572      8571      8573
      8572      8571      8574      8573      8571      8574      8574      8577      8578
      8574      8577      8579      8574      8577      8580      8575      8574      8576
      8575      8574      8577      8576      8574      8577      8577      8580      8581
      8577      8580      8582      8577      8580      8583      8578      8577      8579
      8578      8577      8580      8579      8577      8580      8580      8583      8584
      8580      8583      8585      8580      8583      8586      8581      8580      8582
      8581      8580      8583      8582      8580      8583      8583      8586      8587
      8583      8586      8588      8583      8586      8589      8584      8583      8585
      8584      8583      8586      8585      8583      8586      8586      8589      8590
      8586      8589      8591      8586      8589      8592      8587      8586      8588
      8587      8586      8589      8588      8586      8589      8589      8592      8593
      8589      8592      8594      8589      8592      8595      8590      8589      8591
      8590      8589      8592      8591      8589      8592      8593      8592      8594
      8593      8592      8595      8594      8592      8595      8596      8599      8600
      8596      8599      8601      8596      8599      8602      8597      8596      8598
      8597      8596      8599      8598      8596      8599      8599      8602      8603
      8599      8602      8604      8599      8602      8605      8600      8599      8601
      8600      8599      8602      8601      8599      8602      8602      8605      8606
      8602      8605      8607      8602      8605      8608      8603      8602      8604
      8603      8602      8605      8604      8602      8605      8605      8608      8609
      8605      8608      8610      8605      8608      8611      8606      8605      8607
      8606      8605      8608      8607      8605      8608      8608      8611      8612
      8608      8611      8613      8608      8611      8614      8609      8608      8610
      8609      8608      8611      8610      8608      8611      8611      8614      8615
      8611      8614      8616      8612      8611      8613      8612      8611      8614
      8613      8611      8614      8614      8616      8617      8614      8616      8618
      8615      8614      8616      8616      8618      8619      8616      8618      8620
      8616      8618      8621      8617      8616      8618      8618      8621      8622
      8618      8621      8623      8618      8621      8624      8619      8618      8620
      8619      8618      8621      8620      8618      8621      8621      8624      8625
      8621      8624      8626      8621      8624      8627      8622      8621      8623
      8622      8621      8624      8623      8621      8624      8624      8627      8628
      8624      8627      8629      8624      8627      8630      8625      8624      8626
      8625      8624      8627      8626      8624      8627      8627      8630      8631
      8627      8630      8632      8627      8630      8633      8628      8627      8629
      8628      8627      8630      8629      8627      8630      8630      8633      8634
      8630      8633      8635      8630      8633      8636      8631      8630      8632
      8631      8630      8633      8632      8630      8633      8633      8636      8637
      8633      8636      8638      8633      8636      8639      8634      8633      8635
      8634      8633      8636      8635      8633      8636      8636      8639      8640
      8636      8639      8641      8636      8639      8642      8637      8636      8638
      8637      8636      8639      8638      8636      8639      8640      8639      8641
      8640      8639      8642      8641      8639      8642      8643      8644      8645
      8643      8644      8646      8643      8644      8659      8643      8647      8648
      8643      8647      8649      8643      8647      8650      8643      8651      8652
      8643      8651      8653      8643      8651      8654      8643      8655      8656
      8643      8655      8657      8643      8655      8658      8644      8643      8647
      8644      8643      8651      8644      8643      8655      8644      8659      8660
      8644      8659      8661      8644      8659      8665      8645      8644      8646
      8645      8644      8659      8646      8644      8659      8647      8643      8651
      8647      8643      8655      8648      8647      8649      8648      8647      8650
      8649      8647      8650      8651      8643      8655      8652      8651      8653
      8652      8651      8654      8653      8651      8654      8656      8655      8657
      8656      8655      8658      8657      8655      8658      8659      8665      8662
      8660      8659      8661      8660      8659      8665      8661      8659      8665
      8662      8666      8667      8663      8662      8664      8663      8662      8665
      8663      8662      8666      8664      8662      8665      8664      8662      8666
      8665      8662      8666      8666      8667      8668      8666      8667      8669
      8666      8667      8670      8667      8670      8671      8667      8670      8672
      8667      8670      8678      8668      8667      8669      8668      8667      8670
      8669      8667      8670      8670      8672      8673      8670      8678      8679
      8670      8678      8680      8670      8678      8681      8671      8670      8672
      8671      8670      8678      8672      8670      8678      8672      8673      8674
      8672      8673      8675      8673      8675      8676      8673      8675      8677
      8673      8675      8687      8674      8673      8675      8675      8687      8688
      8675      8687      8689      8675      8687      8690      8676      8675      8677
      8676      8675      8687      8677      8675      8687      8678      8681      8682
      8679      8678      8680      8679      8678      8681      8680      8678      8681
      8681      8682      8683      8681      8682      8684      8682      8684      8685
      8682      8684      8686      8682      8684      8734      8683      8682      8684
      8684      8734      8735      8684      8734      8736      8684      8734      8737
      8685      8684      8686      8685      8684      8734      8686      8684      8734
      8687      8690      8691      8687      8690      8692      8687      8690      8693
      8688      8687      8689      8688      8687      8690      8689      8687      8690
      8690      8693      8694      8690      8693      8695      8690      8693      8696
      8691      8690      8692      8691      8690      8693      8692      8690      8693
      8693      8696      8697      8693      8696      8698      8693      8696      8699
      8694      8693      8695      8694      8693      8696      8695      8693      8696
      8696      8699      8700      8696      8699      8701      8696      8699      8702
      8697      8696      8698      8697      8696      8699      8698      8696      8699
      8699      8702      8703      8699      8702      8704      8699      8702      8705
      8700      8699      8701      8700      8699      8702      8701      8699      8702
      8702      8705      8706      8702      8705      8707      8703      8702      8704
      8703      8702      8705      8704      8702      8705      8705      8707      8708
      8705      8707      8709      8706      8705      8707      8707      8709      8710
      8707      8709      8711      8707      8709      8712      8708      8707      8709
      8709      8712      8713      8709      8712      8714      8709      8712      8715
      8710      8709      8711      8710      8709      8712      8711      8709      8712
      8712      8715      8716      8712      8715      8717      8712      8715      8718
      8713      8712      8714      8713      8712      8715      8714      8712      8715
      8715      8718      8719      8715      8718      8720      8715      8718      8721
      8716      8715      8717      8716      8715      8718      8717      8715      8718
      8718      8721      8722      8718      8721      8723      8718      8721      8724
      8719      8718      8720      8719      8718      8721      8720      8718      8721
      8721      8724      8725      8721      8724      8726      8721      8724      8727
      8722      8721      8723      8722      8721      8724      8723      8721      8724
      8724      8727      8728      8724      8727      8729      8724      8727      8730
      8725      8724      8726      8725      8724      8727      8726      8724      8727
      8727      8730      8731      8727      8730      8732      8727      8730      8733
      8728      8727      8729      8728      8727      8730      8729      8727      8730
      8731      8730      8732      8731      8730      8733      8732      8730      8733
      8734      8737      8738      8734      8737      8739      8734      8737      8740
      8735      8734      8736      8735      8734      8737      8736      8734      8737
      8737      8740      8741      8737      8740      8742      8737      8740      8743
      8738      8737      8739      8738      8737      8740      8739      8737      8740
      8740      8743      8744      8740      8743      8745      8740      8743      8746
      8741      8740      8742      8741      8740      8743      8742      8740      8743
      8743      8746      8747      8743      8746      8748      8743      8746      8749
      8744      8743      8745      8744      8743      8746      8745      8743      8746
      8746      8749      8750      8746      8749      8751      8746      8749      8752
      8747      8746      8748      8747      8746      8749      8748      8746      8749
      8749      8752      8753      8749      8752      8754      8750      8749      8751
      8750      8749      8752      8751      8749      8752      8752      8754      8755
      8752      8754      8756      8753      8752      8754      8754      8756      8757
      8754      8756      8758      8754      8756      8759      8755      8754      8756
      8756      8759      8760      8756      8759      8761      8756      8759      8762
      8757      8756      8758      8757      8756      8759      8758      8756      8759
      8759      8762      8763      8759      8762      8764      8759      8762      8765
      8760      8759      8761      8760      8759      8762      8761      8759      8762
      8762      8765      8766      8762      8765      8767      8762      8765      8768
      8763      8762      8764      8763      8762      8765      8764      8762      8765
      8765      8768      8769      8765      8768      8770      8765      8768      8771
      8766      8765      8767      8766      8765      8768      8767      8765      8768
      8768      8771      8772      8768      8771      8773      8768      8771      8774
      8769      8768      8770      8769      8768      8771      8770      8768      8771
      8771      8774      8775      8771      8774      8776      8771      8774      8777
      8772      8771      8773      8772      8771      8774      8773      8771      8774
      8774      8777      8778      8774      8777      8779      8774      8777      8780
      8775      8774      8776      8775      8774      8777      8776      8774      8777
      8778      8777      8779      8778      8777      8780      8779      8777      8780
      8781      8782      8783      8781      8782      8784      8781      8782      8797
      8781      8785      8786      8781      8785      8787      8781      8785      8788
      8781      8789      8790      8781      8789      8791      8781      8789      8792
      8781      8793      8794      8781      8793      8795      8781      8793      8796
      8782      8781      8785      8782      8781      8789      8782      8781      8793
      8782      8797      8798      8782      8797      8799      8782      8797      8803
      8783      8782      8784      8783      8782      8797      8784      8782      8797
      8785      8781      8789      8785      8781      8793      8786      8785      8787
      8786      8785      8788      8787      8785      8788      8789      8781      8793
      8790      8789      8791      8790      8789      8792      8791      8789      8792
      8794      8793      8795      8794      8793      8796      8795      8793      8796
      8797      8803      8800      8798      8797      8799      8798      8797      8803
      8799      8797      8803      8800      8804      8805      8801      8800      8802
      8801      8800      8803      8801      8800      8804      8802      8800      8803
      8802      8800      8804      8803      8800      8804      8804      8805      8806
      8804      8805      8807      8804      8805      8808      8805      8808      8809
      8805      8808      8810      8805      8808      8816      8806      8805      8807
      8806      8805      8808      8807      8805      8808      8808      8810      8811
      8808      8816      8817      8808      8816      8818      8808      8816      8819
      8809      8808      8810      8809      8808      8816      8810      8808      8816
      8810      8811      8812      8810      8811      8813      8811      8813      8814
      8811      8813      8815      8811      8813      8825      8812      8811      8813
      8813      8825      8826      8813      8825      8827      8813      8825      8828
      8814      8813      8815      8814      8813      8825      8815      8813      8825
      8816      8819      8820      8817      8816      8818      8817      8816      8819
      8818      8816      8819      8819      8820      8821      8819      8820      8822
      8820      8822      8823      8820      8822      8824      8820      8822      8872
      8821      8820      8822      8822      8872      8873      8822      8872      8874
      8822      8872      8875      8823      8822      8824      8823      8822      8872
      8824      8822      8872      8825      8828      8829      8825      8828      8830
      8825      8828      8831      8826      8825      8827      8826      8825      8828
      8827      8825      8828      8828      8831      8832      8828      8831      8833
      8828      8831      8834      8829      8828      8830      8829      8828      8831
      8830      8828      8831      8831      8834      8835      8831      8834      8836
      8831      8834      8837      8832      8831      8833      8832      8831      8834
      8833      8831      8834      8834      8837      8838      8834      8837      8839
      8834      8837      8840      8835      8834      8836      8835      8834      8837
      8836      8834      8837      8837      8840      8841      8837      8840      8842
      8837      8840      8843      8838      8837      8839      8838      8837      8840
      8839      8837      8840      8840      8843      8844      8840      8843      8845
      8841      8840      8842      8841      8840      8843      8842      8840      8843
      8843      8845      8846      8843      8845      8847      8844      8843      8845
      8845      8847      8848      8845      8847      8849      8845      8847      8850
      8846      8845      8847      8847      8850      8851      8847      8850      8852
      8847      8850      8853      8848      8847      8849      8848      8847      8850
      8849      8847      8850      8850      8853      8854      8850      8853      8855
      8850      8853      8856      8851      8850      8852      8851      8850      8853
      8852      8850      8853      8853      8856      8857      8853      8856      8858
      8853      8856      8859      8854      8853      8855      8854      8853      8856
      8855      8853      8856      8856      8859      8860      8856      8859      8861
      8856      8859      8862      8857      8856      8858      8857      8856      8859
      8858      8856      8859      8859      8862      8863      8859      8862      8864
      8859      8862      8865      8860      8859      8861      8860      8859      8862
      8861      8859      8862      8862      8865      8866      8862      8865      8867
      8862      8865      8868      8863      8862      8864      8863      8862      8865
      8864      8862      8865      8865      8868      8869      8865      8868      8870
      8865      8868      8871      8866      8865      8867      8866      8865      8868
      8867      8865      8868      8869      8868      8870      8869      8868      8871
      8870      8868      8871      8872      8875      8876      8872      8875      8877
      8872      8875      8878      8873      8872      8874      8873      8872      8875
      8874      8872      8875      8875      8878      8879      8875      8878      8880
      8875      8878      8881      8876      8875      8877      8876      8875      8878
      8877      8875      8878      8878      8881      8882      8878      8881      8883
      8878      8881      8884      8879      8878      8880      8879      8878      8881
      8880      8878      8881      8881      8884      8885      8881      8884      8886
      8881      8884      8887      8882      8881      8883      8882      8881      8884
      8883      8881      8884      8884      8887      8888      8884      8887      8889
      8884      8887      8890      8885      8884      8886      8885      8884      8887
      8886      8884      8887      8887      8890      8891      8887      8890      8892
      8888      8887      8889      8888      8887      8890      8889      8887      8890
      8890      8892      8893      8890      8892      8894      8891      8890      8892
      8892      8894      8895      8892      8894      8896      8892      8894      8897
      8893      8892      8894      8894      8897      8898      8894      8897      8899
      8894      8897      8900      8895      8894      8896      8895      8894      8897
      8896      8894      8897      8897      8900      8901      8897      8900      8902
      8897      8900      8903      8898      8897      8899      8898      8897      8900
      8899      8897      8900      8900      8903      8904      8900      8903      8905
      8900      8903      8906      8901      8900      8902      8901      8900      8903
      8902      8900      8903      8903      8906      8907      8903      8906      8908
      8903      8906      8909      8904      8903      8905      8904      8903      8906
      8905      8903      8906      8906      8909      8910      8906      8909      8911
      8906      8909      8912      8907      8906      8908      8907      8906      8909
      8908      8906      8909      8909      8912      8913      8909      8912      8914
      8909      8912      8915      8910      8909      8911      8910      8909      8912
      8911      8909      8912      8912      8915      8916      8912      8915      8917
      8912      8915      8918      8913      8912      8914      8913      8912      8915
      8914      8912      8915      8916      8915      8917      8916      8915      8918
      8917      8915      8918      8919      8920      8921      8919      8920      8922
      8919      8920      8935      8919      8923      8924      8919      8923      8925
      8919      8923      8926      8919      8927      8928      8919      8927      8929
      8919      8927      8930      8919      8931      8932      8919      8931      8933
      8919      8931      8934      8920      8919      8923      8920      8919      8927
      8920      8919      8931      8920      8935      8936      8920      8935      8937
      8920      8935      8941      8921      8920      8922      8921      8920      8935
      8922      8920      8935      8923      8919      8927      8923      8919      8931
      8924      8923      8925      8924      8923      8926      8925      8923      8926
      8927      8919      8931      8928      8927      8929      8928      8927      8930
      8929      8927      8930      8932      8931      8933      8932      8931      8934
      8933      8931      8934      8935      8941      8938      8936      8935      8937
      8936      8935      8941      8937      8935      8941      8938      8942      8943
      8939      8938      8940      8939      8938      8941      8939      8938      8942
      8940      8938      8941      8940      8938      8942      8941      8938      8942
      8942      8943      8944      8942      8943      8945      8942      8943      8946
      8943      8946      8947      8943      8946      8948      8943      8946      8954
      8944      8943      8945      8944      8943      8946      8945      8943      8946
      8946      8948      8949      8946      8954      8955      8946      8954      8956
      8946      8954      8957      8947      8946      8948      8947      8946      8954
      8948      8946      8954      8948      8949      8950      8948      8949      8951
      8949      8951      8952      8949      8951      8953      8949      8951      8963
      8950      8949      8951      8951      8963      8964      8951      8963      8965
      8951      8963      8966      8952      8951      8953      8952      8951      8963
      8953      8951      8963      8954      8957      8958      8955      8954      8956
      8955      8954      8957      8956      8954      8957      8957      8958      8959
      8957      8958      8960      8958      8960      8961      8958      8960      8962
      8958      8960      9010      8959      8958      8960      8960      9010      9011
      8960      9010      9012      8960      9010      9013      8961      8960      8962
      8961      8960      9010      8962      8960      9010      8963      8966      8967
      8963      8966      8968      8963      8966      8969      8964      8963      8965
      8964      8963      8966      8965      8963      8966      8966      8969      8970
      8966      8969      8971      8966      8969      8972      8967      8966      8968
      8967      8966      8969      8968      8966      8969      8969      8972      8973
      8969      8972      8974      8969      8972      8975      8970      8969      8971
      8970      8969      8972      8971      8969      8972      8972      8975      8976
      8972      8975      8977      8972      8975      8978      8973      8972      8974
      8973      8972      8975      8974      8972      8975      8975      8978      8979
      8975      8978      8980      8975      8978      8981      8976      8975      8977
      8976      8975      8978      8977      8975      8978      8978      8981      8982
      8978      8981      8983      8979      8978      8980      8979      8978      8981
      8980      8978      8981      8981      8983      8984      8981      8983      8985
      8982      8981      8983      8983      8985      8986      8983      8985      8987
      8983      8985      8988      8984      8983      8985      8985      8988      8989
      8985      8988      8990      8985      8988      8991      8986      8985      8987
      8986      8985      8988      8987      8985      8988      8988      8991      8992
      8988      8991      8993      8988      8991      8994      8989      8988      8990
      8989      8988      8991      8990      8988      8991      8991      8994      8995
      8991      8994      8996      8991      8994      8997      8992      8991      8993
      8992      8991      8994      8993      8991      8994      8994      8997      8998
      8994      8997      8999      8994      8997      9000      8995      8994      8996
      8995      8994      8997      8996      8994      8997      8997      9000      9001
      8997      9000      9002      8997      9000      9003      8998      8997      8999
      8998      8997      9000      8999      8997      9000      9000      9003      9004
      9000      9003      9005      9000      9003      9006      9001      9000      9002
      9001      9000      9003      9002      9000      9003      9003      9006      9007
      9003      9006      9008      9003      9006      9009      9004      9003      9005
      9004      9003      9006      9005      9003      9006      9007      9006      9008
      9007      9006      9009      9008      9006      9009      9010      9013      9014
      9010      9013      9015      9010      9013      9016      9011      9010      9012
      9011      9010      9013      9012      9010      9013      9013      9016      9017
      9013      9016      9018      9013      9016      9019      9014      9013      9015
      9014      9013      9016      9015      9013      9016      9016      9019      9020
      9016      9019      9021      9016      9019      9022      9017      9016      9018
      9017      9016      9019      9018      9016      9019      9019      9022      9023
      9019      9022      9024      9019      9022      9025      9020      9019      9021
      9020      9019      9022      9021      9019      9022      9022      9025      9026
      9022      9025      9027      9022      9025      9028      9023      9022      9024
      9023      9022      9025      9024      9022      9025      9025      9028      9029
      9025      9028      9030      9026      9025      9027      9026      9025      9028
      9027      9025      9028      9028      9030      9031      9028      9030      9032
      9029      9028      9030      9030      9032      9033      9030      9032      9034
      9030      9032      9035      9031      9030      9032      9032      9035      9036
      9032      9035      9037      9032      9035      9038      9033      9032      9034
      9033      9032      9035      9034      9032      9035      9035      9038      9039
      9035      9038      9040      9035      9038      9041      9036      9035      9037
      9036      9035      9038      9037      9035      9038      9038      9041      9042
      9038      9041      9043      9038      9041      9044      9039      9038      9040
      9039      9038      9041      9040      9038      9041      9041      9044      9045
      9041      9044      9046      9041      9044      9047      9042      9041      9043
      9042      9041      9044      9043      9041      9044      9044      9047      9048
      9044      9047      9049      9044      9047      9050      9045      9044      9046
      9045      9044      9047      9046      9044      9047      9047      9050      9051
      9047      9050      9052      9047      9050      9053      9048      9047      9049
      9048      9047      9050      9049      9047      9050      9050      9053      9054
      9050      9053      9055      9050      9053      9056      9051      9050      9052
      9051      9050      9053      9052      9050      9053      9054      9053      9055
      9054      9053      9056      9055      9053      9056      9057      9058      9059
      9057      9058      9060      9057      9058      9073      9057      9061      9062
      9057      9061      9063      9057      9061      9064      9057      9065      9066
      9057      9065      9067      9057      9065      9068      9057      9069      9070
      9057      9069      9071      9057      9069      9072      9058      9057      9061
      9058      9057      9065      9058      9057      9069      9058      9073      9074
      9058      9073      9075      9058      9073      9079      9059      9058      9060
      9059      9058      9073      9060      9058      9073      9061      9057      9065
      9061      9057      9069      9062      9061      9063      9062      9061      9064
      9063      9061      9064      9065      9057      9069      9066      9065      9067
      9066      9065      9068      9067      9065      9068      9070      9069      9071
      9070      9069      9072      9071      9069      9072      9073      9079      9076
      9074      9073      9075      9074      9073      9079      9075      9073      9079
      9076      9080      9081      9077      9076      9078      9077      9076      9079
      9077      9076      9080      9078      9076      9079      9078      9076      9080
      9079      9076      9080      9080      9081      9082      9080      9081      9083
      9080      9081      9084      9081      9084      9085      9081      9084      9086
      9081      9084      9092      9082      9081      9083      9082      9081      9084
      9083      9081      9084      9084      9086      9087      9084      9092      9093
      9084      9092      9094      9084      9092      9095      9085      9084      9086
      9085      9084      9092      9086      9084      9092      9086      9087      9088
      9086      9087      9089      9087      9089      9090      9087      9089      9091
      9087      9089      9101      9088      9087      9089      9089      9101      9102
      9089      9101      9103      9089      9101      9104      9090      9089      9091
      9090      9089      9101      9091      9089      9101      9092      9095      9096
      9093      9092      9094      9093      9092      9095      9094      9092      9095
      9095      9096      9097      9095      9096      9098      9096      9098      9099
      9096      9098      9100      9096      9098      9148      9097      9096      9098
      9098      9148      9149      9098      9148      9150      9098      9148      9151
      9099      9098      9100      9099      9098      9148      9100      9098      9148
      9101      9104      9105      9101      9104      9106      9101      9104      9107
      9102      9101      9103      9102      9101      9104      9103      9101      9104
      9104      9107      9108      9104      9107      9109      9104      9107      9110
      9105      9104      9106      9105      9104      9107      9106      9104      9107
      9107      9110      9111      9107      9110      9112      9107      9110      9113
      9108      9107      9109      9108      9107      9110      9109      9107      9110
      9110      9113      9114      9110      9113      9115      9110      9113      9116
      9111      9110      9112      9111      9110      9113      9112      9110      9113
      9113      9116      9117      9113      9116      9118      9113      9116      9119
      9114      9113      9115      9114      9113      9116      9115      9113      9116
      9116      9119      9120      9116      9119      9121      9117      9116      9118
      9117      9116      9119      9118      9116      9119      9119      9121      9122
      9119      9121      9123      9120      9119      9121      9121      9123      9124
      9121      9123      9125      9121      9123      9126      9122      9121      9123
      9123      9126      9127      9123      9126      9128      9123      9126      9129
      9124      9123      9125      9124      9123      9126      9125      9123      9126
      9126      9129      9130      9126      9129      9131      9126      9129      9132
      9127      9126      9128      9127      9126      9129      9128      9126      9129
      9129      9132      9133      9129      9132      9134      9129      9132      9135
      9130      9129      9131      9130      9129      9132      9131      9129      9132
      9132      9135      9136      9132      9135      9137      9132      9135      9138
      9133      9132      9134      9133      9132      9135      9134      9132      9135
      9135      9138      9139      9135      9138      9140      9135      9138      9141
      9136      9135      9137      9136      9135      9138      9137      9135      9138
      9138      9141      9142      9138      9141      9143      9138      9141      9144
      9139      9138      9140      9139      9138      9141      9140      9138      9141
      9141      9144      9145      9141      9144      9146      9141      9144      9147
      9142      9141      9143      9142      9141      9144      9143      9141      9144
      9145      9144      9146      9145      9144      9147      9146      9144      9147
      9148      9151      9152      9148      9151      9153      9148      9151      9154
      9149      9148      9150      9149      9148      9151      9150      9148      9151
      9151      9154      9155      9151      9154      9156      9151      9154      9157
      9152      9151      9153      9152      9151      9154      9153      9151      9154
      9154      9157      9158      9154      9157      9159      9154      9157      9160
      9155      9154      9156      9155      9154      9157      9156      9154      9157
      9157      9160      9161      9157      9160      9162      9157      9160      9163
      9158      9157      9159      9158      9157      9160      9159      9157      9160
      9160      9163      9164      9160      9163      9165      9160      9163      9166
      9161      9160      9162      9161      9160      9163      9162      9160      9163
      9163      9166      9167      9163      9166      9168      9164      9163      9165
      9164      9163      9166      9165      9163      9166      9166      9168      9169
      9166      9168      9170      9167      9166      9168      9168      9170      9171
      9168      9170      9172      9168      9170      9173      9169      9168      9170
      9170      9173      9174      9170      9173      9175      9170      9173      9176
      9171      9170      9172      9171      9170      9173      9172      9170      9173
      9173      9176      9177      9173      9176      9178      9173      9176      9179
      9174      9173      9175      9174      9173      9176      9175      9173      9176
      9176      9179      9180      9176      9179      9181      9176      9179      9182
      9177      9176      9178      9177      9176      9179      9178      9176      9179
      9179      9182      9183      9179      9182      9184      9179      9182      9185
      9180      9179      9181      9180      9179      9182      9181      9179      9182
      9182      9185      9186      9182      9185      9187      9182      9185      9188
      9183      9182      9184      9183      9182      9185      9184      9182      9185
      9185      9188      9189      9185      9188      9190      9185      9188      9191
      9186      9185      9187      9186      9185      9188      9187      9185      9188
      9188      9191      9192      9188      9191      9193      9188      9191      9194
      9189      9188      9190      9189      9188      9191      9190      9188      9191
      9192      9191      9193      9192      9191      9194      9193      9191      9194
      9195      9196      9197      9195      9196      9198      9195      9196      9211
      9195      9199      9200      9195      9199      9201      9195      9199      9202
      9195      9203      9204      9195      9203      9205      9195      9203      9206
      9195      9207      9208      9195      9207      9209      9195      9207      9210
      9196      9195      9199      9196      9195      9203      9196      9195      9207
      9196      9211      9212      9196      9211      9213      9196      9211      9217
      9197      9196      9198      9197      9196      9211      9198      9196      9211
      9199      9195      9203      9199      9195      9207      9200      9199      9201
      9200      9199      9202      9201      9199      9202      9203      9195      9207
      9204      9203      9205      9204      9203      9206      9205      9203      9206
      9208      9207      9209      9208      9207      9210      9209      9207      9210
      9211      9217      9214      9212      9211      9213      9212      9211      9217
      9213      9211      9217      9214      9218      9219      9215      9214      9216
      9215      9214      9217      9215      9214      9218      9216      9214      9217
      9216      9214      9218      9217      9214      9218      9218      9219      9220
      9218      9219      9221      9218      9219      9222      9219      9222      9223
      9219      9222      9224      9219      9222      9230      9220      9219      9221
      9220      9219      9222      9221      9219      9222      9222      9224      9225
      9222      9230      9231      9222      9230      9232      9222      9230      9233
      9223      9222      9224      9223      9222      9230      9224      9222      9230
      9224      9225      9226      9224      9225      9227      9225      9227      9228
      9225      9227      9229      9225      9227      9239      9226      9225      9227
      9227      9239      9240      9227      9239      9241      9227      9239      9242
      9228      9227      9229      9228      9227      9239      9229      9227      9239
      9230      9233      9234      9231      9230      9232      9231      9230      9233
      9232      9230      9233      9233      9234      9235      9233      9234      9236
      9234      9236      9237      9234      9236      9238      9234      9236      9286
      9235      9234      9236      9236      9286      9287      9236      9286      9288
      9236      9286      9289      9237      9236      9238      9237      9236      9286
      9238      9236      9286      9239      9242      9243      9239      9242      9244
      9239      9242      9245      9240      9239      9241      9240      9239      9242
      9241      9239      9242      9242      9245      9246      9242      9245      9247
      9242      9245      9248      9243      9242      9244      9243      9242      9245
      9244      9242      9245      9245      9248      9249      9245      9248      9250
      9245      9248      9251      9246      9245      9247      9246      9245      9248
      9247      9245      9248      9248      9251      9252      9248      9251      9253
      9248      9251      9254      9249      9248      9250      9249      9248      9251
      9250      9248      9251      9251      9254      9255      9251      9254      9256
      9251      9254      9257      9252      9251      9253      9252      9251      9254
      9253      9251      9254      9254      9257      9258      9254      9257      9259
      9255      9254      9256      9255      9254      9257      9256      9254      9257
      9257      9259      9260      9257      9259      9261      9258      9257      9259
      9259      9261      9262      9259      9261      9263      9259      9261      9264
      9260      9259      9261      9261      9264      9265      9261      9264      9266
      9261      9264      9267      9262      9261      9263      9262      9261      9264
      9263      9261      9264      9264      9267      9268      9264      9267      9269
      9264      9267      9270      9265      9264      9266      9265      9264      9267
      9266      9264      9267      9267      9270      9271      9267      9270      9272
      9267      9270      9273      9268      9267      9269      9268      9267      9270
      9269      9267      9270      9270      9273      9274      9270      9273      9275
      9270      9273      9276      9271      9270      9272      9271      9270      9273
      9272      9270      9273      9273      9276      9277      9273      9276      9278
      9273      9276      9279      9274      9273      9275      9274      9273      9276
      9275      9273      9276      9276      9279      9280      9276      9279      9281
      9276      9279      9282      9277      9276      9278      9277      9276      9279
      9278      9276      9279      9279      9282      9283      9279      9282      9284
      9279      9282      9285      9280      9279      9281      9280      9279      9282
      9281      9279      9282      9283      9282      9284      9283      9282      9285
      9284      9282      9285      9286      9289      9290      9286      9289      9291
      9286      9289      9292      9287      9286      9288      9287      9286      9289
      9288      9286      9289      9289      9292      9293      9289      9292      9294
      9289      9292      9295      9290      9289      9291      9290      9289      9292
      9291      9289      9292      9292      9295      9296      9292      9295      9297
      9292      9295      9298      9293      9292      9294      9293      9292      9295
      9294      9292      9295      9295      9298      9299      9295      9298      9300
      9295      9298      9301      9296      9295      9297      9296      9295      9298
      9297      9295      9298      9298      9301      9302      9298      9301      9303
      9298      9301      9304      9299      9298      9300      9299      9298      9301
      9300      9298      9301      9301      9304      9305      9301      9304      9306
      9302      9301      9303      9302      9301      9304      9303      9301      9304
      9304      9306      9307      9304      9306      9308      9305      9304      9306
      9306      9308      9309      9306      9308      9310      9306      9308      9311
      9307      9306      9308      9308      9311      9312      9308      9311      9313
      9308      9311      9314      9309      9308      9310      9309      9308      9311
      9310      9308      9311      9311      9314      9315      9311      9314      9316
      9311      9314      9317      9312      9311      9313      9312      9311      9314
      9313      9311      9314      9314      9317      9318      9314      9317      9319
      9314      9317      9320      9315      9314      9316      9315      9314      9317
      9316      9314      9317      9317      9320      9321      9317      9320      9322
      9317      9320      9323      9318      9317      9319      9318      9317      9320
      9319      9317      9320      9320      9323      9324      9320      9323      9325
      9320      9323      9326      9321      9320      9322      9321      9320      9323
      9322      9320      9323      9323      9326      9327      9323      9326      9328
      9323      9326      9329      9324      9323      9325      9324      9323      9326
      9325      9323      9326      9326      9329      9330      9326      9329      9331
      9326      9329      9332      9327      9326      9328      9327      9326      9329
      9328      9326      9329      9330      9329      9331      9330      9329      9332
      9331      9329      9332      9333      9334      9335      9333      9334      9336
      9333      9334      9349      9333      9337      9338      9333      9337      9339
      9333      9337      9340      9333      9341      9342      9333      9341      9343
      9333      9341      9344      9333      9345      9346      9333      9345      9347
      9333      9345      9348      9334      9333      9337      9334      9333      9341
      9334      9333      9345      9334      9349      9350      9334      9349      9351
      9334      9349      9355      9335      9334      9336      9335      9334      9349
      9336      9334      9349      9337      9333      9341      9337      9333      9345
      9338      9337      9339      9338      9337      9340      9339      9337      9340
      9341      9333      9345      9342      9341      9343      9342      9341      9344
      9343      9341      9344      9346      9345      9347      9346      9345      9348
      9347      9345      9348      9349      9355      9352      9350      9349      9351
      9350      9349      9355      9351      9349      9355      9352      9356      9357
      9353      9352      9354      9353      9352      9355      9353      9352      9356
      9354      9352      9355      9354      9352      9356      9355      9352      9356
      9356      9357      9358      9356      9357      9359      9356      9357      9360
      9357      9360      9361      9357      9360      9362      9357      9360      9368
      9358      9357      9359      9358      9357      9360      9359      9357      9360
      9360      9362      9363      9360      9368      9369      9360      9368      9370
      9360      9368      9371      9361      9360      9362      9361      9360      9368
      9362      9360      9368      9362      9363      9364      9362      9363      9365
      9363      9365      9366      9363      9365      9367      9363      9365      9377
      9364      9363      9365      9365      9377      9378      9365      9377      9379
      9365      9377      9380      9366      9365      9367      9366      9365      9377
      9367      9365      9377      9368      9371      9372      9369      9368      9370
      9369      9368      9371      9370      9368      9371      9371      9372      9373
      9371      9372      9374      9372      9374      9375      9372      9374      9376
      9372      9374      9424      9373      9372      9374      9374      9424      9425
      9374      9424      9426      9374      9424      9427      9375      9374      9376
      9375      9374      9424      9376      9374      9424      9377      9380      9381
      9377      9380      9382      9377      9380      9383      9378      9377      9379
      9378      9377      9380      9379      9377      9380      9380      9383      9384
      9380      9383      9385      9380      9383      9386      9381      9380      9382
      9381      9380      9383      9382      9380      9383      9383      9386      9387
      9383      9386      9388      9383      9386      9389      9384      9383      9385
      9384      9383      9386      9385      9383      9386      9386      9389      9390
      9386      9389      9391      9386      9389      9392      9387      9386      9388
      9387      9386      9389      9388      9386      9389      9389      9392      9393
      9389      9392      9394      9389      9392      9395      9390      9389      9391
      9390      9389      9392      9391      9389      9392      9392      9395      9396
      9392      9395      9397      9393      9392      9394      9393      9392      9395
      9394      9392      9395      9395      9397      9398      9395      9397      9399
      9396      9395      9397      9397      9399      9400      9397      9399      9401
      9397      9399      9402      9398      9397      9399      9399      9402      9403
      9399      9402      9404      9399      9402      9405      9400      9399      9401
      9400      9399      9402      9401      9399      9402      9402      9405      9406
      9402      9405      9407      9402      9405      9408      9403      9402      9404
      9403      9402      9405      9404      9402      9405      9405      9408      9409
      9405      9408      9410      9405      9408      9411      9406      9405      9407
      9406      9405      9408      9407      9405      9408      9408      9411      9412
      9408      9411      9413      9408      9411      9414      9409      9408      9410
      9409      9408      9411      9410      9408      9411      9411      9414      9415
      9411      9414      9416      9411      9414      9417      9412      9411      9413
      9412      9411      9414      9413      9411      9414      9414      9417      9418
      9414      9417      9419      9414      9417      9420      9415      9414      9416
      9415      9414      9417      9416      9414      9417      9417      9420      9421
      9417      9420      9422      9417      9420      9423      9418      9417      9419
      9418      9417      9420      9419      9417      9420      9421      9420      9422
      9421      9420      9423      9422      9420      9423      9424      9427      9428
      9424      9427      9429      9424      9427      9430      9425      9424      9426
      9425      9424      9427      9426      9424      9427      9427      9430      9431
      9427      9430      9432      9427      9430      9433      9428      9427      9429
      9428      9427      9430      9429      9427      9430      9430      9433      9434
      9430      9433      9435      9430      9433      9436      9431      9430      9432
      9431      9430      9433      9432      9430      9433      9433      9436      9437
      9433      9436      9438      9433      9436      9439      9434      9433      9435
      9434      9433      9436      9435      9433      9436      9436      9439      9440
      9436      9439      9441      9436      9439      9442      9437      9436      9438
      9437      9436      9439      9438      9436      9439      9439      9442      9443
      9439      9442      9444      9440      9439      9441      9440      9439      9442
      9441      9439      9442      9442      9444      9445      9442      9444      9446
      9443      9442      9444      9444      9446      9447      9444      9446      9448
      9444      9446      9449      9445      9444      9446      9446      9449      9450
      9446      9449      9451      9446      9449      9452      9447      9446      9448
      9447      9446      9449      9448      9446      9449      9449      9452      9453
      9449      9452      9454      9449      9452      9455      9450      9449      9451
      9450      9449      9452      9451      9449      9452      9452      9455      9456
      9452      9455      9457      9452      9455      9458      9453      9452      9454
      9453      9452      9455      9454      9452      9455      9455      9458      9459
      9455      9458      9460      9455      9458      9461      9456      9455      9457
      9456      9455      9458      9457      9455      9458      9458      9461      9462
      9458      9461      9463      9458      9461      9464      9459      9458      9460
      9459      9458      9461      9460      9458      9461      9461      9464      9465
      9461      9464      9466      9461      9464      9467      9462      9461      9463
      9462      9461      9464      9463      9461      9464      9464      9467      9468
      9464      9467      9469      9464      9467      9470      9465      9464      9466
      9465      9464      9467      9466      9464      9467      9468      9467      9469
      9468      9467      9470      9469      9467      9470      9471      9472      9473
      9471      9472      9474      9471      9472      9487      9471      9475      9476
      9471      9475      9477      9471      9475      9478      9471      9479      9480
      9471      9479      9481      9471      9479      9482      9471      9483      9484
      9471      9483      9485      9471      9483      9486      9472      9471      9475
      9472      9471      9479      9472      9471      9483      9472      9487      9488
      9472      9487      9489      9472      9487      9493      9473      9472      9474
      9473      9472      9487      9474      9472      9487      9475      9471      9479
      9475      9471      9483      9476      9475      9477      9476      9475      9478
      9477      9475      9478      9479      9471      9483      9480      9479      9481
      9480      9479      9482      9481      9479      9482      9484      9483      9485
      9484      9483      9486      9485      9483      9486      9487      9493      9490
      9488      9487      9489      9488      9487      9493      9489      9487      9493
      9490      9494      9495      9491      9490      9492      9491      9490      9493
      9491      9490      9494      9492      9490      9493      9492      9490      9494
      9493      9490      9494      9494      9495      9496      9494      9495      9497
      9494      9495      9498      9495      9498      9499      9495      9498      9500
      9495      9498      9506      9496      9495      9497      9496      9495      9498
      9497      9495      9498      9498      9500      9501      9498      9506      9507
      9498      9506      9508      9498      9506      9509      9499      9498      9500
      9499      9498      9506      9500      9498      9506      9500      9501      9502
      9500      9501      9503      9501      9503      9504      9501      9503      9505
      9501      9503      9515      9502      9501      9503      9503      9515      9516
      9503      9515      9517      9503      9515      9518      9504      9503      9505
      9504      9503      9515      9505      9503      9515      9506      9509      9510
      9507      9506      9508      9507      9506      9509      9508      9506      9509
      9509      9510      9511      9509      9510      9512      9510      9512      9513
      9510      9512      9514      9510      9512      9562      9511      9510      9512
      9512      9562      9563      9512      9562      9564      9512      9562      9565
      9513      9512      9514      9513      9512      9562      9514      9512      9562
      9515      9518      9519      9515      9518      9520      9515      9518      9521
      9516      9515      9517      9516      9515      9518      9517      9515      9518
      9518      9521      9522      9518      9521      9523      9518      9521      9524
      9519      9518      9520      9519      9518      9521      9520      9518      9521
      9521      9524      9525      9521      9524      9526      9521      9524      9527
      9522      9521      9523      9522      9521      9524      9523      9521      9524
      9524      9527      9528      9524      9527      9529      9524      9527      9530
      9525      9524      9526      9525      9524      9527      9526      9524      9527
      9527      9530      9531      9527      9530      9532      9527      9530      9533
      9528      9527      9529      9528      9527      9530      9529      9527      9530
      9530      9533      9534      9530      9533      9535      9531      9530      9532
      9531      9530      9533      9532      9530      9533      9533      9535      9536
      9533      9535      9537      9534      9533      9535      9535      9537      9538
      9535      9537      9539      9535      9537      9540      9536      9535      9537
      9537      9540      9541      9537      9540      9542      9537      9540      9543
      9538      9537      9539      9538      9537      9540      9539      9537      9540
      9540      9543      9544      9540      9543      9545      9540      9543      9546
      9541      9540      9542      9541      9540      9543      9542      9540      9543
      9543      9546      9547      9543      9546      9548      9543      9546      9549
      9544      9543      9545      9544      9543      9546      9545      9543      9546
      9546      9549      9550      9546      9549      9551      9546      9549      9552
      9547      9546      9548      9547      9546      9549      9548      9546      9549
      9549      9552      9553      9549      9552      9554      9549      9552      9555
      9550      9549      9551      9550      9549      9552      9551      9549      9552
      9552      9555      9556      9552      9555      9557      9552      9555      9558
      9553      9552      9554      9553      9552      9555      9554      9552      9555
      9555      9558      9559      9555      9558      9560      9555      9558      9561
      9556      9555      9557      9556      9555      9558      9557      9555      9558
      9559      9558      9560      9559      9558      9561      9560      9558      9561
      9562      9565      9566      9562      9565      9567      9562      9565      9568
      9563      9562      9564      9563      9562      9565      9564      9562      9565
      9565      9568      9569      9565      9568      9570      9565      9568      9571
      9566      9565      9567      9566      9565      9568      9567      9565      9568
      9568      9571      9572      9568      9571      9573      9568      9571      9574
      9569      9568      9570      9569      9568      9571      9570      9568      9571
      9571      9574      9575      9571      9574      9576      9571      9574      9577
      9572      9571      9573      9572      9571      9574      9573      9571      9574
      9574      9577      9578      9574      9577      9579      9574      9577      9580
      9575      9574      9576      9575      9574      9577      9576      9574      9577
      9577      9580      9581      9577      9580      9582      9578      9577      9579
      9578      9577      9580      9579      9577      9580      9580      9582      9583
      9580      9582      9584      9581      9580      9582      9582      9584      9585
      9582      9584      9586      9582      9584      9587      9583      9582      9584
      9584      9587      9588      9584      9587      9589      9584      9587      9590
      9585      9584      9586      9585      9584      9587      9586      9584      9587
      9587      9590      9591      9587      9590      9592      9587      9590      9593
      9588      9587      9589      9588      9587      9590      9589      9587      9590
      9590      9593      9594      9590      9593      9595      9590      9593      9596
      9591      9590      9592      9591      9590      9593      9592      9590      9593
      9593      9596      9597      9593      9596      9598      9593      9596      9599
      9594      9593      9595      9594      9593      9596      9595      9593      9596
      9596      9599      9600      9596      9599      9601      9596      9599      9602
      9597      9596      9598      9597      9596      9599      9598      9596      9599
      9599      9602      9603      9599      9602      9604      9599      9602      9605
      9600      9599      9601      9600      9599      9602      9601      9599      9602
      9602      9605      9606      9602      9605      9607      9602      9605      9608
      9603      9602      9604      9603      9602      9605      9604      9602      9605
      9606      9605      9607      9606      9605      9608      9607      9605      9608
      9609      9610      9611      9609      9610      9612      9609      9610      9625
      9609      9613      9614      9609      9613      9615      9609      9613      9616
      9609      9617      9618      9609      9617      9619      9609      9617      9620
      9609      9621      9622      9609      9621      9623      9609      9621      9624
      9610      9609      9613      9610      9609      9617      9610      9609      9621
      9610      9625      9626      9610      9625      9627      9610      9625      9631
      9611      9610      9612      9611      9610      9625      9612      9610      9625
      9613      9609      9617      9613      9609      9621      9614      9613      9615
      9614      9613      9616      9615      9613      9616      9617      9609      9621
      9618      9617      9619      9618      9617      9620      9619      9617      9620
      9622      9621      9623      9622      9621      9624      9623      9621      9624
      9625      9631      9628      9626      9625      9627      9626      9625      9631
      9627      9625      9631      9628      9632      9633      9629      9628      9630
      9629      9628      9631      9629      9628      9632      9630      9628      9631
      9630      9628      9632      9631      9628      9632      9632      9633      9634
      9632      9633      9635      9632      9633      9636      9633      9636      9637
      9633      9636      9638      9633      9636      9644      9634      9633      9635
      9634      9633      9636      9635      9633      9636      9636      9638      9639
      9636      9644      9645      9636      9644      9646      9636      9644      9647
      9637      9636      9638      9637      9636      9644      9638      9636      9644
      9638      9639      9640      9638      9639      9641      9639      9641      9642
      9639      9641      9643      9639      9641      9653      9640      9639      9641
      9641      9653      9654      9641      9653      9655      9641      9653      9656
      9642      9641      9643      9642      9641      9653      9643      9641      9653
      9644      9647      9648      9645      9644      9646      9645      9644      9647
      9646      9644      9647      9647      9648      9649      9647      9648      9650
      9648      9650      9651      9648      9650      9652      9648      9650      9700
      9649      9648      9650      9650      9700      9701      9650      9700      9702
      9650      9700      9703      9651      9650      9652      9651      9650      9700
      9652      9650      9700      9653      9656      9657      9653      9656      9658
      9653      9656      9659      9654      9653      9655      9654      9653      9656
      9655      9653      9656      9656      9659      9660      9656      9659      9661
      9656      9659      9662      9657      9656      9658      9657      9656      9659
      9658      9656      9659      9659      9662      9663      9659      9662      9664
      9659      9662      9665      9660      9659      9661      9660      9659      9662
      9661      9659      9662      9662      9665      9666      9662      9665      9667
      9662      9665      9668      9663      9662      9664      9663      9662      9665
      9664      9662      9665      9665      9668      9669      9665      9668      9670
      9665      9668      9671      9666      9665      9667      9666      9665      9668
      9667      9665      9668      9668      9671      9672      9668      9671      9673
      9669      9668      9670      9669      9668      9671      9670      9668      9671
      9671      9673      9674      9671      9673      9675      9672      9671      9673
      9673      9675      9676      9673      9675      9677      9673      9675      9678
      9674      9673      9675      9675      9678      9679      9675      9678      9680
      9675      9678      9681      9676      9675      9677      9676      9675      9678
      9677      9675      9678      9678      9681      9682      9678      9681      9683
      9678      9681      9684      9679      9678      9680      9679      9678      9681
      9680      9678      9681      9681      9684      9685      9681      9684      9686
      9681      9684      9687      9682      9681      9683      9682      9681      9684
      9683      9681      9684      9684      9687      9688      9684      9687      9689
      9684      9687      9690      9685      9684      9686      9685      9684      9687
      9686      9684      9687      9687      9690      9691      9687      9690      9692
      9687      9690      9693      9688      9687      9689      9688      9687      9690
      9689      9687      9690      9690      9693      9694      9690      9693      9695
      9690      9693      9696      9691      9690      9692      9691      9690      9693
      9692      9690      9693      9693      9696      9697      9693      9696      9698
      9693      9696      9699      9694      9693      9695      9694      9693      9696
      9695      9693      9696      9697      9696      9698      9697      9696      9699
      9698      9696      9699      9700      9703      9704      9700      9703      9705
      9700      9703      9706      9701      9700      9702      9701      9700      9703
      9702      9700      9703      9703      9706      9707      9703      9706      9708
      9703      9706      9709      9704      9703      9705      9704      9703      9706
      9705      9703      9706      9706      9709      9710      9706      9709      9711
      9706      9709      9712      9707      9706      9708      9707      9706      9709
      9708      9706      9709      9709      9712      9713      9709      9712      9714
      9709      9712      9715      9710      9709      9711      9710      9709      9712
      9711      9709      9712      9712      9715      9716      9712      9715      9717
      9712      9715      9718      9713      9712      9714      9713      9712      9715
      9714      9712      9715      9715      9718      9719      9715      9718      9720
      9716      9715      9717      9716      9715      9718      9717      9715      9718
      9718      9720      9721      9718      9720      9722      9719      9718      9720
      9720      9722      9723      9720      9722      9724      9720      9722      9725
      9721      9720      9722      9722      9725      9726      9722      9725      9727
      9722      9725      9728      9723      9722      9724      9723      9722      9725
      9724      9722      9725      9725      9728      9729      9725      9728      9730
      9725      9728      9731      9726      9725      9727      9726      9725      9728
      9727      9725      9728      9728      9731      9732      9728      9731      9733
      9728      9731      9734      9729      9728      9730      9729      9728      9731
      9730      9728      9731      9731      9734      9735      9731      9734      9736
      9731      9734      9737      9732      9731      9733      9732      9731      9734
      9733      9731      9734      9734      9737      9738      9734      9737      9739
      9734      9737      9740      9735      9734      9736      9735      9734      9737
      9736      9734      9737      9737      9740      9741      9737      9740      9742
      9737      9740      9743      9738      9737      9739      9738      9737      9740
      9739      9737      9740      9740      9743      9744      9740      9743      9745
      9740      9743      9746      9741      9740      9742      9741      9740      9743
      9742      9740      9743      9744      9743      9745      9744      9743      9746
      9745      9743      9746      9747      9748      9749      9747      9748      9750
      9747      9748      9763      9747      9751      9752      9747      9751      9753
      9747      9751      9754      9747      9755      9756      9747      9755      9757
      9747      9755      9758      9747      9759      9760      9747      9759      9761
      9747      9759      9762      9748      9747      9751      9748      9747      9755
      9748      9747      9759      9748      9763      9764      9748      9763      9765
      9748      9763      9769      9749      9748      9750      9749      9748      9763
      9750      9748      9763      9751      9747      9755      9751      9747      9759
      9752      9751      9753      9752      9751      9754      9753      9751      9754
      9755      9747      9759      9756      9755      9757      9756      9755      9758
      9757      9755      9758      9760      9759      9761      9760      9759      9762
      9761      9759      9762      9763      9769      9766      9764      9763      9765
      9764      9763      9769      9765      9763      9769      9766      9770      9771
      9767      9766      9768      9767      9766      9769      9767      9766      9770
      9768      9766      9769      9768      9766      9770      9769      9766      9770
      9770      9771      9772      9770      9771      9773      9770      9771      9774
      9771      9774      9775      9771      9774      9776      9771      9774      9782
      9772      9771      9773      9772      9771      9774      9773      9771      9774
      9774      9776      9777      9774      9782      9783      9774      9782      9784
      9774      9782      9785      9775      9774      9776      9775      9774      9782
      9776      9774      9782      9776      9777      9778      9776      9777      9779
      9777      9779      9780      9777      9779      9781      9777      9779      9791
      9778      9777      9779      9779      9791      9792      9779      9791      9793
      9779      9791      9794      9780      9779      9781      9780      9779      9791
      9781      9779      9791      9782      9785      9786      9783      9782      9784
      9783      9782      9785      9784      9782      9785      9785      9786      9787
      9785      9786      9788      9786      9788      9789      9786      9788      9790
      9786      9788      9838      9787      9786      9788      9788      9838      9839
      9788      9838      9840      9788      9838      9841      9789      9788      9790
      9789      9788      9838      9790      9788      9838      9791      9794      9795
      9791      9794      9796      9791      9794      9797      9792      9791      9793
      9792      9791      9794      9793      9791      9794      9794      9797      9798
      9794      9797      9799      9794      9797      9800      9795      9794      9796
      9795      9794      9797      9796      9794      9797      9797      9800      9801
      9797      9800      9802      9797      9800      9803      9798      9797      9799
      9798      9797      9800      9799      9797      9800      9800      9803      9804
      9800      9803      9805      9800      9803      9806      9801      9800      9802
      9801      9800      9803      9802      9800      9803      9803      9806      9807
      9803      9806      9808      9803      9806      9809      9804      9803      9805
      9804      9803      9806      9805      9803      9806      9806      9809      9810
      9806      9809      9811      9807      9806      9808      9807      9806      9809
      9808      9806      9809      9809      9811      9812      9809      9811      9813
      9810      9809      9811      9811      9813      9814      9811      9813      9815
      9811      9813      9816      9812      9811      9813      9813      9816      9817
      9813      9816      9818      9813      9816      9819      9814      9813      9815
      9814      9813      9816      9815      9813      9816      9816      9819      9820
      9816      9819      9821      9816      9819      9822      9817      9816      9818
      9817      9816      9819      9818      9816      9819      9819      9822      9823
      9819      9822      9824      9819      9822      9825      9820      9819      9821
      9820      9819      9822      9821      9819      9822      9822      9825      9826
      9822      9825      9827      9822      9825      9828      9823      9822      9824
      9823      9822      9825      9824      9822      9825      9825      9828      9829
      9825      9828      9830      9825      9828      9831      9826      9825      9827
      9826      9825      9828      9827      9825      9828      9828      9831      9832
      9828      9831      9833      9828      9831      9834      9829      9828      9830
      9829      9828      9831      9830      9828      9831      9831      9834      9835
      9831      9834      9836      9831      9834      9837      9832      9831      9833
      9832      9831      9834      9833      9831      9834      9835      9834      9836
      9835      9834      9837      9836      9834      9837      9838      9841      9842
      9838      9841      9843      9838      9841      9844      9839      9838      9840
      9839      9838      9841      9840      9838      9841      9841      9844      9845
      9841      9844      9846      9841      9844      9847      9842      9841      9843
      9842      9841      9844      9843      9841      9844      9844      9847      9848
      9844      9847      9849      9844      9847      9850      9845      9844      9846
      9845      9844      9847      9846      9844      9847      9847      9850      9851
      9847      9850      9852      9847      9850      9853      9848      9847      9849
      9848      9847      9850      9849      9847      9850      9850      9853      9854
      9850      9853      9855      9850      9853      9856      9851      9850      9852
      9851      9850      9853      9852      9850      9853      9853      9856      9857
      9853      9856      9858      9854      9853      9855      9854      9853      9856
      9855      9853      9856      9856      9858      9859      9856      9858      9860
      9857      9856      9858      9858      9860      9861      9858      9860      9862
      9858      9860      9863      9859      9858      9860      9860      9863      9864
      9860      9863      9865      9860      9863      9866      9861      9860      9862
      9861      9860      9863      9862      9860      9863      9863      9866      9867
      9863      9866      9868      9863      9866      9869      9864      9863      9865
      9864      9863      9866      9865      9863      9866      9866      9869      9870
      9866      9869      9871      9866      9869      9872      9867      9866      9868
      9867      9866      9869      9868      9866      9869      9869      9872      9873
      9869      9872      9874      9869      9872      9875      9870      9869      9871
      9870      9869      9872      9871      9869      9872      9872      9875      9876
      9872      9875      9877      9872      9875      9878      9873      9872      9874
      9873      9872      9875      9874      9872      9875      9875      9878      9879
      9875      9878      9880      9875      9878      9881      9876      9875      9877
      9876      9875      9878      9877      9875      9878      9878      9881      9882
      9878      9881      9883      9878      9881      9884      9879      9878      9880
      9879      9878      9881      9880      9878      9881      9882      9881      9883
      9882      9881      9884      9883      9881      9884      9885      9886      9887
      9885      9886      9888      9885      9886      9901      9885      9889      9890
      9885      9889      9891      9885      9889      9892      9885      9893      9894
      9885      9893      9895      9885      9893      9896      9885      9897      9898
      9885      9897      9899      9885      9897      9900      9886      9885      9889
      9886      9885      9893      9886      9885      9897      9886      9901      9902
      9886      9901      9903      9886      9901      9907      9887      9886      9888
      9887      9886      9901      9888      9886      9901      9889      9885      9893
      9889      9885      9897      9890      9889      9891      9890      9889      9892
      9891      9889      9892      9893      9885      9897      9894      9893      9895
      9894      9893      9896      9895      9893      9896      9898      9897      9899
      9898      9897      9900      9899      9897      9900      9901      9907      9904
      9902      9901      9903      9902      9901      9907      9903      9901      9907
      9904      9908      9909      9905      9904      9906      9905      9904      9907
      9905      9904      9908      9906      9904      9907      9906      9904      9908
      9907      9904      9908      9908      9909      9910      9908      9909      9911
      9908      9909      9912      9909      9912      9913      9909      9912      9914
      9909      9912      9920      9910      9909      9911      9910      9909      9912
      9911      9909      9912      9912      9914      9915      9912      9920      9921
      9912      9920      9922      9912      9920      9923      9913      9912      9914
      9913      9912      9920      9914      9912      9920      9914      9915      9916
      9914      9915      9917      9915      9917      9918      9915      9917      9919
      9915      9917      9929      9916      9915      9917      9917      9929      9930
      9917      9929      9931      9917      9929      9932      9918      9917      9919
      9918      9917      9929      9919      9917      9929      9920      9923      9924
      9921      9920      9922      9921      9920      9923      9922      9920      9923
      9923      9924      9925      9923      9924      9926      9924      9926      9927
      9924      9926      9928      9924      9926      9976      9925      9924      9926
      9926      9976      9977      9926      9976      9978      9926      9976      9979
      9927      9926      9928      9927      9926      9976      9928      9926      9976
      9929      9932      9933      9929      9932      9934      9929      9932      9935
      9930      9929      9931      9930      9929      9932      9931      9929      9932
      9932      9935      9936      9932      9935      9937      9932      9935      9938
      9933      9932      9934      9933      9932      9935      9934      9932      9935
      9935      9938      9939      9935      9938      9940      9935      9938      9941
      9936      9935      9937      9936      9935      9938      9937      9935      9938
      9938      9941      9942      9938      9941      9943      9938      9941      9944
      9939      9938      9940      9939      9938      9941      9940      9938      9941
      9941      9944      9945      9941      9944      9946      9941      9944      9947
      9942      9941      9943      9942      9941      9944      9943      9941      9944
      9944      9947      9948      9944      9947      9949      9945      9944      9946
      9945      9944      9947      9946      9944      9947      9947      9949      9950
      9947      9949      9951      9948      9947      9949      9949      9951      9952
      9949      9951      9953      9949      9951      9954      9950      9949      9951
      9951      9954      9955      9951      9954      9956      9951      9954      9957
      9952      9951      9953      9952      9951      9954      9953      9951      9954
      9954      9957      9958      9954      9957      9959      9954      9957      9960
      9955      9954      9956      9955      9954      9957      9956      9954      9957
      9957      9960      9961      9957      9960      9962      9957      9960      9963
      9958      9957      9959      9958      9957      9960      9959      9957      9960
      9960      9963      9964      9960      9963      9965      9960      9963      9966
      9961      9960      9962      9961      9960      9963      9962      9960      9963
      9963      9966      9967      9963      9966      9968      9963      9966      9969
      9964      9963      9965      9964      9963      9966      9965      9963      9966
      9966      9969      9970      9966      9969      9971      9966      9969      9972
      9967      9966      9968      9967      9966      9969      9968      9966      9969
      9969      9972      9973      9969      9972      9974      9969      9972      9975
      9970      9969      9971      9970      9969      9972      9971      9969      9972
      9973      9972      9974      9973      9972      9975      9974      9972      9975
      9976      9979      9980      9976      9979      9981      9976      9979      9982
      9977      9976      9978      9977      9976      9979      9978      9976      9979
      9979      9982      9983      9979      9982      9984      9979      9982      9985
      9980      9979      9981      9980      9979      9982      9981      9979      9982
      9982      9985      9986      9982      9985      9987      9982      9985      9988
      9983      9982      9984      9983      9982      9985      9984      9982      9985
      9985      9988      9989      9985      9988      9990      9985      9988      9991
      9986      9985      9987      9986      9985      9988      9987      9985      9988
      9988      9991      9992      9988      9991      9993      9988      9991      9994
      9989      9988      9990      9989      9988      9991      9990      9988      9991
      9991      9994      9995      9991      9994      9996      9992      9991      9993
      9992      9991      9994      9993      9991      9994      9994      9996      9997
      9994      9996      9998      9995      9994      9996      9996      9998      9999
      9996      9998     10000      9996      9998     10001      9997      9996      9998
      9998     10001     10002      9998     10001     10003      9998     10001     10004
      9999      9998     10000      9999      9998     10001     10000      9998     10001
     10001     10004     10005     10001     10004     10006     10001     10004     10007
     10002     10001     10003     10002     10001     10004     10003     10001     10004
     10004     10007     10008     10004     10007     10009     10004     10007     10010
     10005     10004     10006     10005     10004     10007     10006     10004     10007
     10007     10010     10011     10007     10010     10012     10007     10010     10013
     10008     10007     10009     10008     10007     10010     10009     10007     10010
     10010     10013     10014     10010     10013     10015     10010     10013     10016
     10011     10010     10012     10011     10010     10013     10012     10010     10013
     10013     10016     10017     10013     10016     10018     10013     10016     10019
     10014     10013     10015     10014     10013     10016     10015     10013     10016
     10016     10019     10020     10016     10019     10021     10016     10019     10022
     10017     10016     10018     10017     10016     10019     10018     10016     10019
     10020     10019     10021     10020     10019     10022     10021     10019     10022
     10023     10024     10025     10023     10024     10026     10023     10024     10039
     10023     10027     10028     10023     10027     10029     10023     10027     10030
     10023     10031     10032     10023     10031     10033     10023     10031     10034
     10023     10035     10036     10023     10035     10037     10023     10035     10038
     10024     10023     10027     10024     10023     10031     10024     10023     10035
     10024     10039     10040     10024     10039     10041     10024     10039     10045
     10025     10024     10026     10025     10024     10039     10026     10024     10039
     10027     10023     10031     10027     10023     10035     10028     10027     10029
     10028     10027     10030     10029     10027     10030     10031     10023     10035
     10032     10031     10033     10032     10031     10034     10033     10031     10034
     10036     10035     10037     10036     10035     10038     10037     10035     10038
     10039     10045     10042     10040     10039     10041     10040     10039     10045
     10041     10039     10045     10042     10046     10047     10043     10042     10044
     10043     10042     10045     10043     10042     10046     10044     10042     10045
     10044     10042     10046     10045     10042     10046     10046     10047     10048
     10046     10047     10049     10046     10047     10050     10047     10050     10051
     10047     10050     10052     10047     10050     10058     10048     10047     10049
     10048     10047     10050     10049     10047     10050     10050     10052     10053
     10050     10058     10059     10050     10058     10060     10050     10058     10061
     10051     10050     10052     10051     10050     10058     10052     10050     10058
     10052     10053     10054     10052     10053     10055     10053     10055     10056
     10053     10055     10057     10053     10055     10067     10054     10053     10055
     10055     10067     10068     10055     10067     10069     10055     10067     10070
     10056     10055     10057     10056     10055     10067     10057     10055     10067
     10058     10061     10062     10059     10058     10060     10059     10058     10061
     10060     10058     10061     10061     10062     10063     10061     10062     10064
     10062     10064     10065     10062     10064     10066     10062     10064     10114
     10063     10062     10064     10064     10114     10115     10064     10114     10116
     10064     10114     10117     10065     10064     10066     10065     10064     10114
     10066     10064     10114     10067     10070     10071     10067     10070     10072
     10067     10070     10073     10068     10067     10069     10068     10067     10070
     10069     10067     10070     10070     10073     10074     10070     10073     10075
     10070     10073     10076     10071     10070     10072     10071     10070     10073
     10072     10070     10073     10073     10076     10077     10073     10076     10078
     10073     10076     10079     10074     10073     10075     10074     10073     10076
     10075     10073     10076     10076     10079     10080     10076     10079     10081
     10076     10079     10082     10077     10076     10078     10077     10076     10079
     10078     10076     10079     10079     10082     10083     10079     10082     10084
     10079     10082     10085     10080     10079     10081     10080     10079     10082
     10081     10079     10082     10082     10085     10086     10082     10085     10087
     10083     10082     10084     10083     10082     10085     10084     10082     10085
     10085     10087     10088     10085     10087     10089     10086     10085     10087
     10087     10089     10090     10087     10089     10091     10087     10089     10092
     10088     10087     10089     10089     10092     10093     10089     10092     10094
     10089     10092     10095     10090     10089     10091     10090     10089     10092
     10091     10089     10092     10092     10095     10096     10092     10095     10097
     10092     10095     10098     10093     10092     10094     10093     10092     10095
     10094     10092     10095     10095     10098     10099     10095     10098     10100
     10095     10098     10101     10096     10095     10097     10096     10095     10098
     10097     10095     10098     10098     10101     10102     10098     10101     10103
     10098     10101     10104     10099     10098     10100     10099     10098     10101
     10100     10098     10101     10101     10104     10105     10101     10104     10106
     10101     10104     10107     10102     10101     10103     10102     10101     10104
     10103     10101     10104     10104     10107     10108     10104     10107     10109
     10104     10107     10110     10105     10104     10106     10105     10104     10107
     10106     10104     10107     10107     10110     10111     10107     10110     10112
     10107     10110     10113     10108     10107     10109     10108     10107     10110
     10109     10107     10110     10111     10110     10112     10111     10110     10113
     10112     10110     10113     10114     10117     10118     10114     10117     10119
     10114     10117     10120     10115     10114     10116     10115     10114     10117
     10116     10114     10117     10117     10120     10121     10117     10120     10122
     10117     10120     10123     10118     10117     10119     10118     10117     10120
     10119     10117     10120     10120     10123     10124     10120     10123     10125
     10120     10123     10126     10121     10120     10122     10121     10120     10123
     10122     10120     10123     10123     10126     10127     10123     10126     10128
     10123     10126     10129     10124     10123     10125     10124     10123     10126
     10125     10123     10126     10126     10129     10130     10126     10129     10131
     10126     10129     10132     10127     10126     10128     10127     10126     10129
     10128     10126     10129     10129     10132     10133     10129     10132     10134
     10130     10129     10131     10130     10129     10132     10131     10129     10132
     10132     10134     10135     10132     10134     10136     10133     10132     10134
     10134     10136     10137     10134     10136     10138     10134     10136     10139
     10135     10134     10136     10136     10139     10140     10136     10139     10141
     10136     10139     10142     10137     10136     10138     10137     10136     10139
     10138     10136     10139     10139     10142     10143     10139     10142     10144
     10139     10142     10145     10140     10139     10141     10140     10139     10142
     10141     10139     10142     10142     10145     10146     10142     10145     10147
     10142     10145     10148     10143     10142     10144     10143     10142     10145
     10144     10142     10145     10145     10148     10149     10145     10148     10150
     10145     10148     10151     10146     10145     10147     10146     10145     10148
     10147     10145     10148     10148     10151     10152     10148     10151     10153
     10148     10151     10154     10149     10148     10150     10149     10148     10151
     10150     10148     10151     10151     10154     10155     10151     10154     10156
     10151     10154     10157     10152     10151     10153     10152     10151     10154
     10153     10151     10154     10154     10157     10158     10154     10157     10159
     10154     10157     10160     10155     10154     10156     10155     10154     10157
     10156     10154     10157     10158     10157     10159     10158     10157     10160
     10159     10157     10160     10161     10162     10163     10161     10162     10164
     10161     10162     10177     10161     10165     10166     10161     10165     10167
     10161     10165     10168     10161     10169     10170     10161     10169     10171
     10161     10169     10172     10161     10173     10174     10161     10173     10175
     10161     10173     10176     10162     10161     10165     10162     10161     10169
     10162     10161     10173     10162     10177     10178     10162     10177     10179
     10162     10177     10183     10163     10162     10164     10163     10162     10177
     10164     10162     10177     10165     10161     10169     10165     10161     10173
     10166     10165     10167     10166     10165     10168     10167     10165     10168
     10169     10161     10173     10170     10169     10171     10170     10169     10172
     10171     10169     10172     10174     10173     10175     10174     10173     10176
     10175     10173     10176     10177     10183     10180     10178     10177     10179
     10178     10177     10183     10179     10177     10183     10180     10184     10185
     10181     10180     10182     10181     10180     10183     10181     10180     10184
     10182     10180     10183     10182     10180     10184     10183     10180     10184
     10184     10185     10186     10184     10185     10187     10184     10185     10188
     10185     10188     10189     10185     10188     10190     10185     10188     10196
     10186     10185     10187     10186     10185     10188     10187     10185     10188
     10188     10190     10191     10188     10196     10197     10188     10196     10198
     10188     10196     10199     10189     10188     10190     10189     10188     10196
     10190     10188     10196     10190     10191     10192     10190     10191     10193
     10191     10193     10194     10191     10193     10195     10191     10193     10205
     10192     10191     10193     10193     10205     10206     10193     10205     10207
     10193     10205     10208     10194     10193     10195     10194     10193     10205
     10195     10193     10205     10196     10199     10200     10197     10196     10198
     10197     10196     10199     10198     10196     10199     10199     10200     10201
     10199     10200     10202     10200     10202     10203     10200     10202     10204
     10200     10202     10252     10201     10200     10202     10202     10252     10253
     10202     10252     10254     10202     10252     10255     10203     10202     10204
     10203     10202     10252     10204     10202     10252     10205     10208     10209
     10205     10208     10210     10205     10208     10211     10206     10205     10207
     10206     10205     10208     10207     10205     10208     10208     10211     10212
     10208     10211     10213     10208     10211     10214     10209     10208     10210
     10209     10208     10211     10210     10208     10211     10211     10214     10215
     10211     10214     10216     10211     10214     10217     10212     10211     10213
     10212     10211     10214     10213     10211     10214     10214     10217     10218
     10214     10217     10219     10214     10217     10220     10215     10214     10216
     10215     10214     10217     10216     10214     10217     10217     10220     10221
     10217     10220     10222     10217     10220     10223     10218     10217     10219
     10218     10217     10220     10219     10217     10220     10220     10223     10224
     10220     10223     10225     10221     10220     10222     10221     10220     10223
     10222     10220     10223     10223     10225     10226     10223     10225     10227
     10224     10223     10225     10225     10227     10228     10225     10227     10229
     10225     10227     10230     10226     10225     10227     10227     10230     10231
     10227     10230     10232     10227     10230     10233     10228     10227     10229
     10228     10227     10230     10229     10227     10230     10230     10233     10234
     10230     10233     10235     10230     10233     10236     10231     10230     10232
     10231     10230     10233     10232     10230     10233     10233     10236     10237
     10233     10236     10238     10233     10236     10239     10234     10233     10235
     10234     10233     10236     10235     10233     10236     10236     10239     10240
     10236     10239     10241     10236     10239     10242     10237     10236     10238
     10237     10236     10239     10238     10236     10239     10239     10242     10243
     10239     10242     10244     10239     10242     10245     10240     10239     10241
     10240     10239     10242     10241     10239     10242     10242     10245     10246
     10242     10245     10247     10242     10245     10248     10243     10242     10244
     10243     10242     10245     10244     10242     10245     10245     10248     10249
     10245     10248     10250     10245     10248     10251     10246     10245     10247
     10246     10245     10248     10247     10245     10248     10249     10248     10250
     10249     10248     10251     10250     10248     10251     10252     10255     10256
     10252     10255     10257     10252     10255     10258     10253     10252     10254
     10253     10252     10255     10254     10252     10255     10255     10258     10259
     10255     10258     10260     10255     10258     10261     10256     10255     10257
     10256     10255     10258     10257     10255     10258     10258     10261     10262
     10258     10261     10263     10258     10261     10264     10259     10258     10260
     10259     10258     10261     10260     10258     10261     10261     10264     10265
     10261     10264     10266     10261     10264     10267     10262     10261     10263
     10262     10261     10264     10263     10261     10264     10264     10267     10268
     10264     10267     10269     10264     10267     10270     10265     10264     10266
     10265     10264     10267     10266     10264     10267     10267     10270     10271
     10267     10270     10272     10268     10267     10269     10268     10267     10270
     10269     10267     10270     10270     10272     10273     10270     10272     10274
     10271     10270     10272     10272     10274     10275     10272     10274     10276
     10272     10274     10277     10273     10272     10274     10274     10277     10278
     10274     10277     10279     10274     10277     10280     10275     10274     10276
     10275     10274     10277     10276     10274     10277     10277     10280     10281
     10277     10280     10282     10277     10280     10283     10278     10277     10279
     10278     10277     10280     10279     10277     10280     10280     10283     10284
     10280     10283     10285     10280     10283     10286     10281     10280     10282
     10281     10280     10283     10282     10280     10283     10283     10286     10287
     10283     10286     10288     10283     10286     10289     10284     10283     10285
     10284     10283     10286     10285     10283     10286     10286     10289     10290
     10286     10289     10291     10286     10289     10292     10287     10286     10288
     10287     10286     10289     10288     10286     10289     10289     10292     10293
     10289     10292     10294     10289     10292     10295     10290     10289     10291
     10290     10289     10292     10291     10289     10292     10292     10295     10296
     10292     10295     10297     10292     10295     10298     10293     10292     10294
     10293     10292     10295     10294     10292     10295     10296     10295     10297
     10296     10295     10298     10297     10295     10298     10299     10300     10301
     10299     10300     10302     10299     10300     10315     10299     10303     10304
     10299     10303     10305     10299     10303     10306     10299     10307     10308
     10299     10307     10309     10299     10307     10310     10299     10311     10312
     10299     10311     10313     10299     10311     10314     10300     10299     10303
     10300     10299     10307     10300     10299     10311     10300     10315     10316
     10300     10315     10317     10300     10315     10321     10301     10300     10302
     10301     10300     10315     10302     10300     10315     10303     10299     10307
     10303     10299     10311     10304     10303     10305     10304     10303     10306
     10305     10303     10306     10307     10299     10311     10308     10307     10309
     10308     10307     10310     10309     10307     10310     10312     10311     10313
     10312     10311     10314     10313     10311     10314     10315     10321     10318
     10316     10315     10317     10316     10315     10321     10317     10315     10321
     10318     10322     10323     10319     10318     10320     10319     10318     10321
     10319     10318     10322     10320     10318     10321     10320     10318     10322
     10321     10318     10322     10322     10323     10324     10322     10323     10325
     10322     10323     10326     10323     10326     10327     10323     10326     10328
     10323     10326     10334     10324     10323     10325     10324     10323     10326
     10325     10323     10326     10326     10328     10329     10326     10334     10335
     10326     10334     10336     10326     10334     10337     10327     10326     10328
     10327     10326     10334     10328     10326     10334     10328     10329     10330
     10328     10329     10331     10329     10331     10332     10329     10331     10333
     10329     10331     10343     10330     10329     10331     10331     10343     10344
     10331     10343     10345     10331     10343     10346     10332     10331     10333
     10332     10331     10343     10333     10331     10343     10334     10337     10338
     10335     10334     10336     10335     10334     10337     10336     10334     10337
     10337     10338     10339     10337     10338     10340     10338     10340     10341
     10338     10340     10342     10338     10340     10390     10339     10338     10340
     10340     10390     10391     10340     10390     10392     10340     10390     10393
     10341     10340     10342     10341     10340     10390     10342     10340     10390
     10343     10346     10347     10343     10346     10348     10343     10346     10349
     10344     10343     10345     10344     10343     10346     10345     10343     10346
     10346     10349     10350     10346     10349     10351     10346     10349     10352
     10347     10346     10348     10347     10346     10349     10348     10346     10349
     10349     10352     10353     10349     10352     10354     10349     10352     10355
     10350     10349     10351     10350     10349     10352     10351     10349     10352
     10352     10355     10356     10352     10355     10357     10352     10355     10358
     10353     10352     10354     10353     10352     10355     10354     10352     10355
     10355     10358     10359     10355     10358     10360     10355     10358     10361
     10356     10355     10357     10356     10355     10358     10357     10355     10358
     10358     10361     10362     10358     10361     10363     10359     10358     10360
     10359     10358     10361     10360     10358     10361     10361     10363     10364
     10361     10363     10365     10362     10361     10363     10363     10365     10366
     10363     10365     10367     10363     10365     10368     10364     10363     10365
     10365     10368     10369     10365     10368     10370     10365     10368     10371
     10366     10365     10367     10366     10365     10368     10367     10365     10368
     10368     10371     10372     10368     10371     10373     10368     10371     10374
     10369     10368     10370     10369     10368     10371     10370     10368     10371
     10371     10374     10375     10371     10374     10376     10371     10374     10377
     10372     10371     10373     10372     10371     10374     10373     10371     10374
     10374     10377     10378     10374     10377     10379     10374     10377     10380
     10375     10374     10376     10375     10374     10377     10376     10374     10377
     10377     10380     10381     10377     10380     10382     10377     10380     10383
     10378     10377     10379     10378     10377     10380     10379     10377     10380
     10380     10383     10384     10380     10383     10385     10380     10383     10386
     10381     10380     10382     10381     10380     10383     10382     10380     10383
     10383     10386     10387     10383     10386     10388     10383     10386     10389
     10384     10383     10385     10384     10383     10386     10385     10383     10386
     10387     10386     10388     10387     10386     10389     10388     10386     10389
     10390     10393     10394     10390     10393     10395     10390     10393     10396
     10391     10390     10392     10391     10390     10393     10392     10390     10393
     10393     10396     10397     10393     10396     10398     10393     10396     10399
     10394     10393     10395     10394     10393     10396     10395     10393     10396
     10396     10399     10400     10396     10399     10401     10396     10399     10402
     10397     10396     10398     10397     10396     10399     10398     10396     10399
     10399     10402     10403     10399     10402     10404     10399     10402     10405
     10400     10399     10401     10400     10399     10402     10401     10399     10402
     10402     10405     10406     10402     10405     10407     10402     10405     10408
     10403     10402     10404     10403     10402     10405     10404     10402     10405
     10405     10408     10409     10405     10408     10410     10406     10405     10407
     10406     10405     10408     10407     10405     10408     10408     10410     10411
     10408     10410     10412     10409     10408     10410     10410     10412     10413
     10410     10412     10414     10410     10412     10415     10411     10410     10412
     10412     10415     10416     10412     10415     10417     10412     10415     10418
     10413     10412     10414     10413     10412     10415     10414     10412     10415
     10415     10418     10419     10415     10418     10420     10415     10418     10421
     10416     10415     10417     10416     10415     10418     10417     10415     10418
     10418     10421     10422     10418     10421     10423     10418     10421     10424
     10419     10418     10420     10419     10418     10421     10420     10418     10421
     10421     10424     10425     10421     10424     10426     10421     10424     10427
     10422     10421     10423     10422     10421     10424     10423     10421     10424
     10424     10427     10428     10424     10427     10429     10424     10427     10430
     10425     10424     10426     10425     10424     10427     10426     10424     10427
     10427     10430     10431     10427     10430     10432     10427     10430     10433
     10428     10427     10429     10428     10427     10430     10429     10427     10430
     10430     10433     10434     10430     10433     10435     10430     10433     10436
     10431     10430     10432     10431     10430     10433     10432     10430     10433
     10434     10433     10435     10434     10433     10436     10435     10433     10436
     10437     10438     10439     10437     10438     10440     10437     10438     10453
     10437     10441     10442     10437     10441     10443     10437     10441     10444
     10437     10445     10446     10437     10445     10447     10437     10445     10448
     10437     10449     10450     10437     10449     10451     10437     10449     10452
     10438     10437     10441     10438     10437     10445     10438     10437     10449
     10438     10453     10454     10438     10453     10455     10438     10453     10459
     10439     10438     10440     10439     10438     10453     10440     10438     10453
     10441     10437     10445     10441     10437     10449     10442     10441     10443
     10442     10441     10444     10443     10441     10444     10445     10437     10449
     10446     10445     10447     10446     10445     10448     10447     10445     10448
     10450     10449     10451     10450     10449     10452     10451     10449     10452
     10453     10459     10456     10454     10453     10455     10454     10453     10459
     10455     10453     10459     10456     10460     10461     10457     10456     10458
     10457     10456     10459     10457     10456     10460     10458     10456     10459
     10458     10456     10460     10459     10456     10460     10460     10461     10462
     10460     10461     10463     10460     10461     10464     10461     10464     10465
     10461     10464     10466     10461     10464     10472     10462     10461     10463
     10462     10461     10464     10463     10461     10464     10464     10466     10467
     10464     10472     10473     10464     10472     10474     10464     10472     10475
     10465     10464     10466     10465     10464     10472     10466     10464     10472
     10466     10467     10468     10466     10467     10469     10467     10469     10470
     10467     10469     10471     10467     10469     10481     10468     10467     10469
     10469     10481     10482     10469     10481     10483     10469     10481     10484
     10470     10469     10471     10470     10469     10481     10471     10469     10481
     10472     10475     10476     10473     10472     10474     10473     10472     10475
     10474     10472     10475     10475     10476     10477     10475     10476     10478
     10476     10478     10479     10476     10478     10480     10476     10478     10528
     10477     10476     10478     10478     10528     10529     10478     10528     10530
     10478     10528     10531     10479     10478     10480     10479     10478     10528
     10480     10478     10528     10481     10484     10485     10481     10484     10486
     10481     10484     10487     10482     10481     10483     10482     10481     10484
     10483     10481     10484     10484     10487     10488     10484     10487     10489
     10484     10487     10490     10485     10484     10486     10485     10484     10487
     10486     10484     10487     10487     10490     10491     10487     10490     10492
     10487     10490     10493     10488     10487     10489     10488     10487     10490
     10489     10487     10490     10490     10493     10494     10490     10493     10495
     10490     10493     10496     10491     10490     10492     10491     10490     10493
     10492     10490     10493     10493     10496     10497     10493     10496     10498
     10493     10496     10499     10494     10493     10495     10494     10493     10496
     10495     10493     10496     10496     10499     10500     10496     10499     10501
     10497     10496     10498     10497     10496     10499     10498     10496     10499
     10499     10501     10502     10499     10501     10503     10500     10499     10501
     10501     10503     10504     10501     10503     10505     10501     10503     10506
     10502     10501     10503     10503     10506     10507     10503     10506     10508
     10503     10506     10509     10504     10503     10505     10504     10503     10506
     10505     10503     10506     10506     10509     10510     10506     10509     10511
     10506     10509     10512     10507     10506     10508     10507     10506     10509
     10508     10506     10509     10509     10512     10513     10509     10512     10514
     10509     10512     10515     10510     10509     10511     10510     10509     10512
     10511     10509     10512     10512     10515     10516     10512     10515     10517
     10512     10515     10518     10513     10512     10514     10513     10512     10515
     10514     10512     10515     10515     10518     10519     10515     10518     10520
     10515     10518     10521     10516     10515     10517     10516     10515     10518
     10517     10515     10518     10518     10521     10522     10518     10521     10523
     10518     10521     10524     10519     10518     10520     10519     10518     10521
     10520     10518     10521     10521     10524     10525     10521     10524     10526
     10521     10524     10527     10522     10521     10523     10522     10521     10524
     10523     10521     10524     10525     10524     10526     10525     10524     10527
     10526     10524     10527     10528     10531     10532     10528     10531     10533
     10528     10531     10534     10529     10528     10530     10529     10528     10531
     10530     10528     10531     10531     10534     10535     10531     10534     10536
     10531     10534     10537     10532     10531     10533     10532     10531     10534
     10533     10531     10534     10534     10537     10538     10534     10537     10539
     10534     10537     10540     10535     10534     10536     10535     10534     10537
     10536     10534     10537     10537     10540     10541     10537     10540     10542
     10537     10540     10543     10538     10537     10539     10538     10537     10540
     10539     10537     10540     10540     10543     10544     10540     10543     10545
     10540     10543     10546     10541     10540     10542     10541     10540     10543
     10542     10540     10543     10543     10546     10547     10543     10546     10548
     10544     10543     10545     10544     10543     10546     10545     10543     10546
     10546     10548     10549     10546     10548     10550     10547     10546     10548
     10548     10550     10551     10548     10550     10552     10548     10550     10553
     10549     10548     10550     10550     10553     10554     10550     10553     10555
     10550     10553     10556     10551     10550     10552     10551     10550     10553
     10552     10550     10553     10553     10556     10557     10553     10556     10558
     10553     10556     10559     10554     10553     10555     10554     10553     10556
     10555     10553     10556     10556     10559     10560     10556     10559     10561
     10556     10559     10562     10557     10556     10558     10557     10556     10559
     10558     10556     10559     10559     10562     10563     10559     10562     10564
     10559     10562     10565     10560     10559     10561     10560     10559     10562
     10561     10559     10562     10562     10565     10566     10562     10565     10567
     10562     10565     10568     10563     10562     10564     10563     10562     10565
     10564     10562     10565     10565     10568     10569     10565     10568     10570
     10565     10568     10571     10566     10565     10567     10566     10565     10568
     10567     10565     10568     10568     10571     10572     10568     10571     10573
     10568     10571     10574     10569     10568     10570     10569     10568     10571
     10570     10568     10571     10572     10571     10573     10572     10571     10574
     10573     10571     10574     10575     10576     10577     10575     10576     10578
     10575     10576     10591     10575     10579     10580     10575     10579     10581
     10575     10579     10582     10575     10583     10584     10575     10583     10585
     10575     10583     10586     10575     10587     10588     10575     10587     10589
     10575     10587     10590     10576     10575     10579     10576     10575     10583
     10576     10575     10587     10576     10591     10592     10576     10591     10593
     10576     10591     10597     10577     10576     10578     10577     10576     10591
     10578     10576     10591     10579     10575     10583     10579     10575     10587
     10580     10579     10581     10580     10579     10582     10581     10579     10582
     10583     10575     10587     10584     10583     10585     10584     10583     10586
     10585     10583     10586     10588     10587     10589     10588     10587     10590
     10589     10587     10590     10591     10597     10594     10592     10591     10593
     10592     10591     10597     10593     10591     10597     10594     10598     10599
     10595     10594     10596     10595     10594     10597     10595     10594     10598
     10596     10594     10597     10596     10594     10598     10597     10594     10598
     10598     10599     10600     10598     10599     10601     10598     10599     10602
     10599     10602     10603     10599     10602     10604     10599     10602     10610
     10600     10599     10601     10600     10599     10602     10601     10599     10602
     10602     10604     10605     10602     10610     10611     10602     10610     10612
     10602     10610     10613     10603     10602     10604     10603     10602     10610
     10604     10602     10610     10604     10605     10606     10604     10605     10607
     10605     10607     10608     10605     10607     10609     10605     10607     10619
     10606     10605     10607     10607     10619     10620     10607     10619     10621
     10607     10619     10622     10608     10607     10609     10608     10607     10619
     10609     10607     10619     10610     10613     10614     10611     10610     10612
     10611     10610     10613     10612     10610     10613     10613     10614     10615
     10613     10614     10616     10614     10616     10617     10614     10616     10618
     10614     10616     10666     10615     10614     10616     10616     10666     10667
     10616     10666     10668     10616     10666     10669     10617     10616     10618
     10617     10616     10666     10618     10616     10666     10619     10622     10623
     10619     10622     10624     10619     10622     10625     10620     10619     10621
     10620     10619     10622     10621     10619     10622     10622     10625     10626
     10622     10625     10627     10622     10625     10628     10623     10622     10624
     10623     10622     10625     10624     10622     10625     10625     10628     10629
     10625     10628     10630     10625     10628     10631     10626     10625     10627
     10626     10625     10628     10627     10625     10628     10628     10631     10632
     10628     10631     10633     10628     10631     10634     10629     10628     10630
     10629     10628     10631     10630     10628     10631     10631     10634     10635
     10631     10634     10636     10631     10634     10637     10632     10631     10633
     10632     10631     10634     10633     10631     10634     10634     10637     10638
     10634     10637     10639     10635     10634     10636     10635     10634     10637
     10636     10634     10637     10637     10639     10640     10637     10639     10641
     10638     10637     10639     10639     10641     10642     10639     10641     10643
     10639     10641     10644     10640     10639     10641     10641     10644     10645
     10641     10644     10646     10641     10644     10647     10642     10641     10643
     10642     10641     10644     10643     10641     10644     10644     10647     10648
     10644     10647     10649     10644     10647     10650     10645     10644     10646
     10645     10644     10647     10646     10644     10647     10647     10650     10651
     10647     10650     10652     10647     10650     10653     10648     10647     10649
     10648     10647     10650     10649     10647     10650     10650     10653     10654
     10650     10653     10655     10650     10653     10656     10651     10650     10652
     10651     10650     10653     10652     10650     10653     10653     10656     10657
     10653     10656     10658     10653     10656     10659     10654     10653     10655
     10654     10653     10656     10655     10653     10656     10656     10659     10660
     10656     10659     10661     10656     10659     10662     10657     10656     10658
     10657     10656     10659     10658     10656     10659     10659     10662     10663
     10659     10662     10664     10659     10662     10665     10660     10659     10661
     10660     10659     10662     10661     10659     10662     10663     10662     10664
     10663     10662     10665     10664     10662     10665     10666     10669     10670
     10666     10669     10671     10666     10669     10672     10667     10666     10668
     10667     10666     10669     10668     10666     10669     10669     10672     10673
     10669     10672     10674     10669     10672     10675     10670     10669     10671
     10670     10669     10672     10671     10669     10672     10672     10675     10676
     10672     10675     10677     10672     10675     10678     10673     10672     10674
     10673     10672     10675     10674     10672     10675     10675     10678     10679
     10675     10678     10680     10675     10678     10681     10676     10675     10677
     10676     10675     10678     10677     10675     10678     10678     10681     10682
     10678     10681     10683     10678     10681     10684     10679     10678     10680
     10679     10678     10681     10680     10678     10681     10681     10684     10685
     10681     10684     10686     10682     10681     10683     10682     10681     10684
     10683     10681     10684     10684     10686     10687     10684     10686     10688
     10685     10684     10686     10686     10688     10689     10686     10688     10690
     10686     10688     10691     10687     10686     10688     10688     10691     10692
     10688     10691     10693     10688     10691     10694     10689     10688     10690
     10689     10688     10691     10690     10688     10691     10691     10694     10695
     10691     10694     10696     10691     10694     10697     10692     10691     10693
     10692     10691     10694     10693     10691     10694     10694     10697     10698
     10694     10697     10699     10694     10697     10700     10695     10694     10696
     10695     10694     10697     10696     10694     10697     10697     10700     10701
     10697     10700     10702     10697     10700     10703     10698     10697     10699
     10698     10697     10700     10699     10697     10700     10700     10703     10704
     10700     10703     10705     10700     10703     10706     10701     10700     10702
     10701     10700     10703     10702     10700     10703     10703     10706     10707
     10703     10706     10708     10703     10706     10709     10704     10703     10705
     10704     10703     10706     10705     10703     10706     10706     10709     10710
     10706     10709     10711     10706     10709     10712     10707     10706     10708
     10707     10706     10709     10708     10706     10709     10710     10709     10711
     10710     10709     10712     10711     10709     10712     10713     10714     10715
     10713     10714     10716     10713     10714     10729     10713     10717     10718
     10713     10717     10719     10713     10717     10720     10713     10721     10722
     10713     10721     10723     10713     10721     10724     10713     10725     10726
     10713     10725     10727     10713     10725     10728     10714     10713     10717
     10714     10713     10721     10714     10713     10725     10714     10729     10730
     10714     10729     10731     10714     10729     10735     10715     10714     10716
     10715     10714     10729     10716     10714     10729     10717     10713     10721
     10717     10713     10725     10718     10717     10719     10718     10717     10720
     10719     10717     10720     10721     10713     10725     10722     10721     10723
     10722     10721     10724     10723     10721     10724     10726     10725     10727
     10726     10725     10728     10727     10725     10728     10729     10735     10732
     10730     10729     10731     10730     10729     10735     10731     10729     10735
     10732     10736     10737     10733     10732     10734     10733     10732     10735
     10733     10732     10736     10734     10732     10735     10734     10732     10736
     10735     10732     10736     10736     10737     10738     10736     10737     10739
     10736     10737     10740     10737     10740     10741     10737     10740     10742
     10737     10740     10748     10738     10737     10739     10738     10737     10740
     10739     10737     10740     10740     10742     10743     10740     10748     10749
     10740     10748     10750     10740     10748     10751     10741     10740     10742
     10741     10740     10748     10742     10740     10748     10742     10743     10744
     10742     10743     10745     10743     10745     10746     10743     10745     10747
     10743     10745     10757     10744     10743     10745     10745     10757     10758
     10745     10757     10759     10745     10757     10760     10746     10745     10747
     10746     10745     10757     10747     10745     10757     10748     10751     10752
     10749     10748     10750     10749     10748     10751     10750     10748     10751
     10751     10752     10753     10751     10752     10754     10752     10754     10755
     10752     10754     10756     10752     10754     10804     10753     10752     10754
     10754     10804     10805     10754     10804     10806     10754     10804     10807
     10755     10754     10756     10755     10754     10804     10756     10754     10804
     10757     10760     10761     10757     10760     10762     10757     10760     10763
     10758     10757     10759     10758     10757     10760     10759     10757     10760
     10760     10763     10764     10760     10763     10765     10760     10763     10766
     10761     10760     10762     10761     10760     10763     10762     10760     10763
     10763     10766     10767     10763     10766     10768     10763     10766     10769
     10764     10763     10765     10764     10763     10766     10765     10763     10766
     10766     10769     10770     10766     10769     10771     10766     10769     10772
     10767     10766     10768     10767     10766     10769     10768     10766     10769
     10769     10772     10773     10769     10772     10774     10769     10772     10775
     10770     10769     10771     10770     10769     10772     10771     10769     10772
     10772     10775     10776     10772     10775     10777     10773     10772     10774
     10773     10772     10775     10774     10772     10775     10775     10777     10778
     10775     10777     10779     10776     10775     10777     10777     10779     10780
     10777     10779     10781     10777     10779     10782     10778     10777     10779
     10779     10782     10783     10779     10782     10784     10779     10782     10785
     10780     10779     10781     10780     10779     10782     10781     10779     10782
     10782     10785     10786     10782     10785     10787     10782     10785     10788
     10783     10782     10784     10783     10782     10785     10784     10782     10785
     10785     10788     10789     10785     10788     10790     10785     10788     10791
     10786     10785     10787     10786     10785     10788     10787     10785     10788
     10788     10791     10792     10788     10791     10793     10788     10791     10794
     10789     10788     10790     10789     10788     10791     10790     10788     10791
     10791     10794     10795     10791     10794     10796     10791     10794     10797
     10792     10791     10793     10792     10791     10794     10793     10791     10794
     10794     10797     10798     10794     10797     10799     10794     10797     10800
     10795     10794     10796     10795     10794     10797     10796     10794     10797
     10797     10800     10801     10797     10800     10802     10797     10800     10803
     10798     10797     10799     10798     10797     10800     10799     10797     10800
     10801     10800     10802     10801     10800     10803     10802     10800     10803
     10804     10807     10808     10804     10807     10809     10804     10807     10810
     10805     10804     10806     10805     10804     10807     10806     10804     10807
     10807     10810     10811     10807     10810     10812     10807     10810     10813
     10808     10807     10809     10808     10807     10810     10809     10807     10810
     10810     10813     10814     10810     10813     10815     10810     10813     10816
     10811     10810     10812     10811     10810     10813     10812     10810     10813
     10813     10816     10817     10813     10816     10818     10813     10816     10819
     10814     10813     10815     10814     10813     10816     10815     10813     10816
     10816     10819     10820     10816     10819     10821     10816     10819     10822
     10817     10816     10818     10817     10816     10819     10818     10816     10819
     10819     10822     10823     10819     10822     10824     10820     10819     10821
     10820     10819     10822     10821     10819     10822     10822     10824     10825
     10822     10824     10826     10823     10822     10824     10824     10826     10827
     10824     10826     10828     10824     10826     10829     10825     10824     10826
     10826     10829     10830     10826     10829     10831     10826     10829     10832
     10827     10826     10828     10827     10826     10829     10828     10826     10829
     10829     10832     10833     10829     10832     10834     10829     10832     10835
     10830     10829     10831     10830     10829     10832     10831     10829     10832
     10832     10835     10836     10832     10835     10837     10832     10835     10838
     10833     10832     10834     10833     10832     10835     10834     10832     10835
     10835     10838     10839     10835     10838     10840     10835     10838     10841
     10836     10835     10837     10836     10835     10838     10837     10835     10838
     10838     10841     10842     10838     10841     10843     10838     10841     10844
     10839     10838     10840     10839     10838     10841     10840     10838     10841
     10841     10844     10845     10841     10844     10846     10841     10844     10847
     10842     10841     10843     10842     10841     10844     10843     10841     10844
     10844     10847     10848     10844     10847     10849     10844     10847     10850
     10845     10844     10846     10845     10844     10847     10846     10844     10847
     10848     10847     10849     10848     10847     10850     10849     10847     10850
     10851     10852     10853     10851     10852     10854     10851     10852     10867
     10851     10855     10856     10851     10855     10857     10851     10855     10858
     10851     10859     10860     10851     10859     10861     10851     10859     10862
     10851     10863     10864     10851     10863     10865     10851     10863     10866
     10852     10851     10855     10852     10851     10859     10852     10851     10863
     10852     10867     10868     10852     10867     10869     10852     10867     10873
     10853     10852     10854     10853     10852     10867     10854     10852     10867
     10855     10851     10859     10855     10851     10863     10856     10855     10857
     10856     10855     10858     10857     10855     10858     10859     10851     10863
     10860     10859     10861     10860     10859     10862     10861     10859     10862
     10864     10863     10865     10864     10863     10866     10865     10863     10866
     10867     10873     10870     10868     10867     10869     10868     10867     10873
     10869     10867     10873     10870     10874     10875     10871     10870     10872
     10871     10870     10873     10871     10870     10874     10872     10870     10873
     10872     10870     10874     10873     10870     10874     10874     10875     10876
     10874     10875     10877     10874     10875     10878     10875     10878     10879
     10875     10878     10880     10875     10878     10886     10876     10875     10877
     10876     10875     10878     10877     10875     10878     10878     10880     10881
     10878     10886     10887     10878     10886     10888     10878     10886     10889
     10879     10878     10880     10879     10878     10886     10880     10878     10886
     10880     10881     10882     10880     10881     10883     10881     10883     10884
     10881     10883     10885     10881     10883     10895     10882     10881     10883
     10883     10895     10896     10883     10895     10897     10883     10895     10898
     10884     10883     10885     10884     10883     10895     10885     10883     10895
     10886     10889     10890     10887     10886     10888     10887     10886     10889
     10888     10886     10889     10889     10890     10891     10889     10890     10892
     10890     10892     10893     10890     10892     10894     10890     10892     10942
     10891     10890     10892     10892     10942     10943     10892     10942     10944
     10892     10942     10945     10893     10892     10894     10893     10892     10942
     10894     10892     10942     10895     10898     10899     10895     10898     10900
     10895     10898     10901     10896     10895     10897     10896     10895     10898
     10897     10895     10898     10898     10901     10902     10898     10901     10903
     10898     10901     10904     10899     10898     10900     10899     10898     10901
     10900     10898     10901     10901     10904     10905     10901     10904     10906
     10901     10904     10907     10902     10901     10903     10902     10901     10904
     10903     10901     10904     10904     10907     10908     10904     10907     10909
     10904     10907     10910     10905     10904     10906     10905     10904     10907
     10906     10904     10907     10907     10910     10911     10907     10910     10912
     10907     10910     10913     10908     10907     10909     10908     10907     10910
     10909     10907     10910     10910     10913     10914     10910     10913     10915
     10911     10910     10912     10911     10910     10913     10912     10910     10913
     10913     10915     10916     10913     10915     10917     10914     10913     10915
     10915     10917     10918     10915     10917     10919     10915     10917     10920
     10916     10915     10917     10917     10920     10921     10917     10920     10922
     10917     10920     10923     10918     10917     10919     10918     10917     10920
     10919     10917     10920     10920     10923     10924     10920     10923     10925
     10920     10923     10926     10921     10920     10922     10921     10920     10923
     10922     10920     10923     10923     10926     10927     10923     10926     10928
     10923     10926     10929     10924     10923     10925     10924     10923     10926
     10925     10923     10926     10926     10929     10930     10926     10929     10931
     10926     10929     10932     10927     10926     10928     10927     10926     10929
     10928     10926     10929     10929     10932     10933     10929     10932     10934
     10929     10932     10935     10930     10929     10931     10930     10929     10932
     10931     10929     10932     10932     10935     10936     10932     10935     10937
     10932     10935     10938     10933     10932     10934     10933     10932     10935
     10934     10932     10935     10935     10938     10939     10935     10938     10940
     10935     10938     10941     10936     10935     10937     10936     10935     10938
     10937     10935     10938     10939     10938     10940     10939     10938     10941
     10940     10938     10941     10942     10945     10946     10942     10945     10947
     10942     10945     10948     10943     10942     10944     10943     10942     10945
     10944     10942     10945     10945     10948     10949     10945     10948     10950
     10945     10948     10951     10946     10945     10947     10946     10945     10948
     10947     10945     10948     10948     10951     10952     10948     10951     10953
     10948     10951     10954     10949     10948     10950     10949     10948     10951
     10950     10948     10951     10951     10954     10955     10951     10954     10956
     10951     10954     10957     10952     10951     10953     10952     10951     10954
     10953     10951     10954     10954     10957     10958     10954     10957     10959
     10954     10957     10960     10955     10954     10956     10955     10954     10957
     10956     10954     10957     10957     10960     10961     10957     10960     10962
     10958     10957     10959     10958     10957     10960     10959     10957     10960
     10960     10962     10963     10960     10962     10964     10961     10960     10962
     10962     10964     10965     10962     10964     10966     10962     10964     10967
     10963     10962     10964     10964     10967     10968     10964     10967     10969
     10964     10967     10970     10965     10964     10966     10965     10964     10967
     10966     10964     10967     10967     10970     10971     10967     10970     10972
     10967     10970     10973     10968     10967     10969     10968     10967     10970
     10969     10967     10970     10970     10973     10974     10970     10973     10975
     10970     10973     10976     10971     10970     10972     10971     10970     10973
     10972     10970     10973     10973     10976     10977     10973     10976     10978
     10973     10976     10979     10974     10973     10975     10974     10973     10976
     10975     10973     10976     10976     10979     10980     10976     10979     10981
     10976     10979     10982     10977     10976     10978     10977     10976     10979
     10978     10976     10979     10979     10982     10983     10979     10982     10984
     10979     10982     10985     10980     10979     10981     10980     10979     10982
     10981     10979     10982     10982     10985     10986     10982     10985     10987
     10982     10985     10988     10983     10982     10984     10983     10982     10985
     10984     10982     10985     10986     10985     10987     10986     10985     10988
     10987     10985     10988     10989     10990     10991     10989     10990     10992
     10989     10990     11005     10989     10993     10994     10989     10993     10995
     10989     10993     10996     10989     10997     10998     10989     10997     10999
     10989     10997     11000     10989     11001     11002     10989     11001     11003
     10989     11001     11004     10990     10989     10993     10990     10989     10997
     10990     10989     11001     10990     11005     11006     10990     11005     11007
     10990     11005     11011     10991     10990     10992     10991     10990     11005
     10992     10990     11005     10993     10989     10997     10993     10989     11001
     10994     10993     10995     10994     10993     10996     10995     10993     10996
     10997     10989     11001     10998     10997     10999     10998     10997     11000
     10999     10997     11000     11002     11001     11003     11002     11001     11004
     11003     11001     11004     11005     11011     11008     11006     11005     11007
     11006     11005     11011     11007     11005     11011     11008     11012     11013
     11009     11008     11010     11009     11008     11011     11009     11008     11012
     11010     11008     11011     11010     11008     11012     11011     11008     11012
     11012     11013     11014     11012     11013     11015     11012     11013     11016
     11013     11016     11017     11013     11016     11018     11013     11016     11024
     11014     11013     11015     11014     11013     11016     11015     11013     11016
     11016     11018     11019     11016     11024     11025     11016     11024     11026
     11016     11024     11027     11017     11016     11018     11017     11016     11024
     11018     11016     11024     11018     11019     11020     11018     11019     11021
     11019     11021     11022     11019     11021     11023     11019     11021     11033
     11020     11019     11021     11021     11033     11034     11021     11033     11035
     11021     11033     11036     11022     11021     11023     11022     11021     11033
     11023     11021     11033     11024     11027     11028     11025     11024     11026
     11025     11024     11027     11026     11024     11027     11027     11028     11029
     11027     11028     11030     11028     11030     11031     11028     11030     11032
     11028     11030     11080     11029     11028     11030     11030     11080     11081
     11030     11080     11082     11030     11080     11083     11031     11030     11032
     11031     11030     11080     11032     11030     11080     11033     11036     11037
     11033     11036     11038     11033     11036     11039     11034     11033     11035
     11034     11033     11036     11035     11033     11036     11036     11039     11040
     11036     11039     11041     11036     11039     11042     11037     11036     11038
     11037     11036     11039     11038     11036     11039     11039     11042     11043
     11039     11042     11044     11039     11042     11045     11040     11039     11041
     11040     11039     11042     11041     11039     11042     11042     11045     11046
     11042     11045     11047     11042     11045     11048     11043     11042     11044
     11043     11042     11045     11044     11042     11045     11045     11048     11049
     11045     11048     11050     11045     11048     11051     11046     11045     11047
     11046     11045     11048     11047     11045     11048     11048     11051     11052
     11048     11051     11053     11049     11048     11050     11049     11048     11051
     11050     11048     11051     11051     11053     11054     11051     11053     11055
     11052     11051     11053     11053     11055     11056     11053     11055     11057
     11053     11055     11058     11054     11053     11055     11055     11058     11059
     11055     11058     11060     11055     11058     11061     11056     11055     11057
     11056     11055     11058     11057     11055     11058     11058     11061     11062
     11058     11061     11063     11058     11061     11064     11059     11058     11060
     11059     11058     11061     11060     11058     11061     11061     11064     11065
     11061     11064     11066     11061     11064     11067     11062     11061     11063
     11062     11061     11064     11063     11061     11064     11064     11067     11068
     11064     11067     11069     11064     11067     11070     11065     11064     11066
     11065     11064     11067     11066     11064     11067     11067     11070     11071
     11067     11070     11072     11067     11070     11073     11068     11067     11069
     11068     11067     11070     11069     11067     11070     11070     11073     11074
     11070     11073     11075     11070     11073     11076     11071     11070     11072
     11071     11070     11073     11072     11070     11073     11073     11076     11077
     11073     11076     11078     11073     11076     11079     11074     11073     11075
     11074     11073     11076     11075     11073     11076     11077     11076     11078
     11077     11076     11079     11078     11076     11079     11080     11083     11084
     11080     11083     11085     11080     11083     11086     11081     11080     11082
     11081     11080     11083     11082     11080     11083     11083     11086     11087
     11083     11086     11088     11083     11086     11089     11084     11083     11085
     11084     11083     11086     11085     11083     11086     11086     11089     11090
     11086     11089     11091     11086     11089     11092     11087     11086     11088
     11087     11086     11089     11088     11086     11089     11089     11092     11093
     11089     11092     11094     11089     11092     11095     11090     11089     11091
     11090     11089     11092     11091     11089     11092     11092     11095     11096
     11092     11095     11097     11092     11095     11098     11093     11092     11094
     11093     11092     11095     11094     11092     11095     11095     11098     11099
     11095     11098     11100     11096     11095     11097     11096     11095     11098
     11097     11095     11098     11098     11100     11101     11098     11100     11102
     11099     11098     11100     11100     11102     11103     11100     11102     11104
     11100     11102     11105     11101     11100     11102     11102     11105     11106
     11102     11105     11107     11102     11105     11108     11103     11102     11104
     11103     11102     11105     11104     11102     11105     11105     11108     11109
     11105     11108     11110     11105     11108     11111     11106     11105     11107
     11106     11105     11108     11107     11105     11108     11108     11111     11112
     11108     11111     11113     11108     11111     11114     11109     11108     11110
     11109     11108     11111     11110     11108     11111     11111     11114     11115
     11111     11114     11116     11111     11114     11117     11112     11111     11113
     11112     11111     11114     11113     11111     11114     11114     11117     11118
     11114     11117     11119     11114     11117     11120     11115     11114     11116
     11115     11114     11117     11116     11114     11117     11117     11120     11121
     11117     11120     11122     11117     11120     11123     11118     11117     11119
     11118     11117     11120     11119     11117     11120     11120     11123     11124
     11120     11123     11125     11120     11123     11126     11121     11120     11122
     11121     11120     11123     11122     11120     11123     11124     11123     11125
     11124     11123     11126     11125     11123     11126     11127     11128     11129
     11127     11128     11130     11127     11128     11143     11127     11131     11132
     11127     11131     11133     11127     11131     11134     11127     11135     11136
     11127     11135     11137     11127     11135     11138     11127     11139     11140
     11127     11139     11141     11127     11139     11142     11128     11127     11131
     11128     11127     11135     11128     11127     11139     11128     11143     11144
     11128     11143     11145     11128     11143     11149     11129     11128     11130
     11129     11128     11143     11130     11128     11143     11131     11127     11135
     11131     11127     11139     11132     11131     11133     11132     11131     11134
     11133     11131     11134     11135     11127     11139     11136     11135     11137
     11136     11135     11138     11137     11135     11138     11140     11139     11141
     11140     11139     11142     11141     11139     11142     11143     11149     11146
     11144     11143     11145     11144     11143     11149     11145     11143     11149
     11146     11150     11151     11147     11146     11148     11147     11146     11149
     11147     11146     11150     11148     11146     11149     11148     11146     11150
     11149     11146     11150     11150     11151     11152     11150     11151     11153
     11150     11151     11154     11151     11154     11155     11151     11154     11156
     11151     11154     11162     11152     11151     11153     11152     11151     11154
     11153     11151     11154     11154     11156     11157     11154     11162     11163
     11154     11162     11164     11154     11162     11165     11155     11154     11156
     11155     11154     11162     11156     11154     11162     11156     11157     11158
     11156     11157     11159     11157     11159     11160     11157     11159     11161
     11157     11159     11171     11158     11157     11159     11159     11171     11172
     11159     11171     11173     11159     11171     11174     11160     11159     11161
     11160     11159     11171     11161     11159     11171     11162     11165     11166
     11163     11162     11164     11163     11162     11165     11164     11162     11165
     11165     11166     11167     11165     11166     11168     11166     11168     11169
     11166     11168     11170     11166     11168     11218     11167     11166     11168
     11168     11218     11219     11168     11218     11220     11168     11218     11221
     11169     11168     11170     11169     11168     11218     11170     11168     11218
     11171     11174     11175     11171     11174     11176     11171     11174     11177
     11172     11171     11173     11172     11171     11174     11173     11171     11174
     11174     11177     11178     11174     11177     11179     11174     11177     11180
     11175     11174     11176     11175     11174     11177     11176     11174     11177
     11177     11180     11181     11177     11180     11182     11177     11180     11183
     11178     11177     11179     11178     11177     11180     11179     11177     11180
     11180     11183     11184     11180     11183     11185     11180     11183     11186
     11181     11180     11182     11181     11180     11183     11182     11180     11183
     11183     11186     11187     11183     11186     11188     11183     11186     11189
     11184     11183     11185     11184     11183     11186     11185     11183     11186
     11186     11189     11190     11186     11189     11191     11187     11186     11188
     11187     11186     11189     11188     11186     11189     11189     11191     11192
     11189     11191     11193     11190     11189     11191     11191     11193     11194
     11191     11193     11195     11191     11193     11196     11192     11191     11193
     11193     11196     11197     11193     11196     11198     11193     11196     11199
     11194     11193     11195     11194     11193     11196     11195     11193     11196
     11196     11199     11200     11196     11199     11201     11196     11199     11202
     11197     11196     11198     11197     11196     11199     11198     11196     11199
     11199     11202     11203     11199     11202     11204     11199     11202     11205
     11200     11199     11201     11200     11199     11202     11201     11199     11202
     11202     11205     11206     11202     11205     11207     11202     11205     11208
     11203     11202     11204     11203     11202     11205     11204     11202     11205
     11205     11208     11209     11205     11208     11210     11205     11208     11211
     11206     11205     11207     11206     11205     11208     11207     11205     11208
     11208     11211     11212     11208     11211     11213     11208     11211     11214
     11209     11208     11210     11209     11208     11211     11210     11208     11211
     11211     11214     11215     11211     11214     11216     11211     11214     11217
     11212     11211     11213     11212     11211     11214     11213     11211     11214
     11215     11214     11216     11215     11214     11217     11216     11214     11217
     11218     11221     11222     11218     11221     11223     11218     11221     11224
     11219     11218     11220     11219     11218     11221     11220     11218     11221
     11221     11224     11225     11221     11224     11226     11221     11224     11227
     11222     11221     11223     11222     11221     11224     11223     11221     11224
     11224     11227     11228     11224     11227     11229     11224     11227     11230
     11225     11224     11226     11225     11224     11227     11226     11224     11227
     11227     11230     11231     11227     11230     11232     11227     11230     11233
     11228     11227     11229     11228     11227     11230     11229     11227     11230
     11230     11233     11234     11230     11233     11235     11230     11233     11236
     11231     11230     11232     11231     11230     11233     11232     11230     11233
     11233     11236     11237     11233     11236     11238     11234     11233     11235
     11234     11233     11236     11235     11233     11236     11236     11238     11239
     11236     11238     11240     11237     11236     11238     11238     11240     11241
     11238     11240     11242     11238     11240     11243     11239     11238     11240
     11240     11243     11244     11240     11243     11245     11240     11243     11246
     11241     11240     11242     11241     11240     11243     11242     11240     11243
     11243     11246     11247     11243     11246     11248     11243     11246     11249
     11244     11243     11245     11244     11243     11246     11245     11243     11246
     11246     11249     11250     11246     11249     11251     11246     11249     11252
     11247     11246     11248     11247     11246     11249     11248     11246     11249
     11249     11252     11253     11249     11252     11254     11249     11252     11255
     11250     11249     11251     11250     11249     11252     11251     11249     11252
     11252     11255     11256     11252     11255     11257     11252     11255     11258
     11253     11252     11254     11253     11252     11255     11254     11252     11255
     11255     11258     11259     11255     11258     11260     11255     11258     11261
     11256     11255     11257     11256     11255     11258     11257     11255     11258
     11258     11261     11262     11258     11261     11263     11258     11261     11264
     11259     11258     11260     11259     11258     11261     11260     11258     11261
     11262     11261     11263     11262     11261     11264     11263     11261     11264
     11265     11266     11267     11265     11266     11268     11265     11266     11281
     11265     11269     11270     11265     11269     11271     11265     11269     11272
     11265     11273     11274     11265     11273     11275     11265     11273     11276
     11265     11277     11278     11265     11277     11279     11265     11277     11280
     11266     11265     11269     11266     11265     11273     11266     11265     11277
     11266     11281     11282     11266     11281     11283     11266     11281     11287
     11267     11266     11268     11267     11266     11281     11268     11266     11281
     11269     11265     11273     11269     11265     11277     11270     11269     11271
     11270     11269     11272     11271     11269     11272     11273     11265     11277
     11274     11273     11275     11274     11273     11276     11275     11273     11276
     11278     11277     11279     11278     11277     11280     11279     11277     11280
     11281     11287     11284     11282     11281     11283     11282     11281     11287
     11283     11281     11287     11284     11288     11289     11285     11284     11286
     11285     11284     11287     11285     11284     11288     11286     11284     11287
     11286     11284     11288     11287     11284     11288     11288     11289     11290
     11288     11289     11291     11288     11289     11292     11289     11292     11293
     11289     11292     11294     11289     11292     11300     11290     11289     11291
     11290     11289     11292     11291     11289     11292     11292     11294     11295
     11292     11300     11301     11292     11300     11302     11292     11300     11303
     11293     11292     11294     11293     11292     11300     11294     11292     11300
     11294     11295     11296     11294     11295     11297     11295     11297     11298
     11295     11297     11299     11295     11297     11309     11296     11295     11297
     11297     11309     11310     11297     11309     11311     11297     11309     11312
     11298     11297     11299     11298     11297     11309     11299     11297     11309
     11300     11303     11304     11301     11300     11302     11301     11300     11303
     11302     11300     11303     11303     11304     11305     11303     11304     11306
     11304     11306     11307     11304     11306     11308     11304     11306     11356
     11305     11304     11306     11306     11356     11357     11306     11356     11358
     11306     11356     11359     11307     11306     11308     11307     11306     11356
     11308     11306     11356     11309     11312     11313     11309     11312     11314
     11309     11312     11315     11310     11309     11311     11310     11309     11312
     11311     11309     11312     11312     11315     11316     11312     11315     11317
     11312     11315     11318     11313     11312     11314     11313     11312     11315
     11314     11312     11315     11315     11318     11319     11315     11318     11320
     11315     11318     11321     11316     11315     11317     11316     11315     11318
     11317     11315     11318     11318     11321     11322     11318     11321     11323
     11318     11321     11324     11319     11318     11320     11319     11318     11321
     11320     11318     11321     11321     11324     11325     11321     11324     11326
     11321     11324     11327     11322     11321     11323     11322     11321     11324
     11323     11321     11324     11324     11327     11328     11324     11327     11329
     11325     11324     11326     11325     11324     11327     11326     11324     11327
     11327     11329     11330     11327     11329     11331     11328     11327     11329
     11329     11331     11332     11329     11331     11333     11329     11331     11334
     11330     11329     11331     11331     11334     11335     11331     11334     11336
     11331     11334     11337     11332     11331     11333     11332     11331     11334
     11333     11331     11334     11334     11337     11338     11334     11337     11339
     11334     11337     11340     11335     11334     11336     11335     11334     11337
     11336     11334     11337     11337     11340     11341     11337     11340     11342
     11337     11340     11343     11338     11337     11339     11338     11337     11340
     11339     11337     11340     11340     11343     11344     11340     11343     11345
     11340     11343     11346     11341     11340     11342     11341     11340     11343
     11342     11340     11343     11343     11346     11347     11343     11346     11348
     11343     11346     11349     11344     11343     11345     11344     11343     11346
     11345     11343     11346     11346     11349     11350     11346     11349     11351
     11346     11349     11352     11347     11346     11348     11347     11346     11349
     11348     11346     11349     11349     11352     11353     11349     11352     11354
     11349     11352     11355     11350     11349     11351     11350     11349     11352
     11351     11349     11352     11353     11352     11354     11353     11352     11355
     11354     11352     11355     11356     11359     11360     11356     11359     11361
     11356     11359     11362     11357     11356     11358     11357     11356     11359
     11358     11356     11359     11359     11362     11363     11359     11362     11364
     11359     11362     11365     11360     11359     11361     11360     11359     11362
     11361     11359     11362     11362     11365     11366     11362     11365     11367
     11362     11365     11368     11363     11362     11364     11363     11362     11365
     11364     11362     11365     11365     11368     11369     11365     11368     11370
     11365     11368     11371     11366     11365     11367     11366     11365     11368
     11367     11365     11368     11368     11371     11372     11368     11371     11373
     11368     11371     11374     11369     11368     11370     11369     11368     11371
     11370     11368     11371     11371     11374     11375     11371     11374     11376
     11372     11371     11373     11372     11371     11374     11373     11371     11374
     11374     11376     11377     11374     11376     11378     11375     11374     11376
     11376     11378     11379     11376     11378     11380     11376     11378     11381
     11377     11376     11378     11378     11381     11382     11378     11381     11383
     11378     11381     11384     11379     11378     11380     11379     11378     11381
     11380     11378     11381     11381     11384     11385     11381     11384     11386
     11381     11384     11387     11382     11381     11383     11382     11381     11384
     11383     11381     11384     11384     11387     11388     11384     11387     11389
     11384     11387     11390     11385     11384     11386     11385     11384     11387
     11386     11384     11387     11387     11390     11391     11387     11390     11392
     11387     11390     11393     11388     11387     11389     11388     11387     11390
     11389     11387     11390     11390     11393     11394     11390     11393     11395
     11390     11393     11396     11391     11390     11392     11391     11390     11393
     11392     11390     11393     11393     11396     11397     11393     11396     11398
     11393     11396     11399     11394     11393     11395     11394     11393     11396
     11395     11393     11396     11396     11399     11400     11396     11399     11401
     11396     11399     11402     11397     11396     11398     11397     11396     11399
     11398     11396     11399     11400     11399     11401     11400     11399     11402
     11401     11399     11402     11403     11404     11405     11403     11404     11406
     11403     11404     11419     11403     11407     11408     11403     11407     11409
     11403     11407     11410     11403     11411     11412     11403     11411     11413
     11403     11411     11414     11403     11415     11416     11403     11415     11417
     11403     11415     11418     11404     11403     11407     11404     11403     11411
     11404     11403     11415     11404     11419     11420     11404     11419     11421
     11404     11419     11425     11405     11404     11406     11405     11404     11419
     11406     11404     11419     11407     11403     11411     11407     11403     11415
     11408     11407     11409     11408     11407     11410     11409     11407     11410
     11411     11403     11415     11412     11411     11413     11412     11411     11414
     11413     11411     11414     11416     11415     11417     11416     11415     11418
     11417     11415     11418     11419     11425     11422     11420     11419     11421
     11420     11419     11425     11421     11419     11425     11422     11426     11427
     11423     11422     11424     11423     11422     11425     11423     11422     11426
     11424     11422     11425     11424     11422     11426     11425     11422     11426
     11426     11427     11428     11426     11427     11429     11426     11427     11430
     11427     11430     11431     11427     11430     11432     11427     11430     11438
     11428     11427     11429     11428     11427     11430     11429     11427     11430
     11430     11432     11433     11430     11438     11439     11430     11438     11440
     11430     11438     11441     11431     11430     11432     11431     11430     11438
     11432     11430     11438     11432     11433     11434     11432     11433     11435
     11433     11435     11436     11433     11435     11437     11433     11435     11447
     11434     11433     11435     11435     11447     11448     11435     11447     11449
     11435     11447     11450     11436     11435     11437     11436     11435     11447
     11437     11435     11447     11438     11441     11442     11439     11438     11440
     11439     11438     11441     11440     11438     11441     11441     11442     11443
     11441     11442     11444     11442     11444     11445     11442     11444     11446
     11442     11444     11494     11443     11442     11444     11444     11494     11495
     11444     11494     11496     11444     11494     11497     11445     11444     11446
     11445     11444     11494     11446     11444     11494     11447     11450     11451
     11447     11450     11452     11447     11450     11453     11448     11447     11449
     11448     11447     11450     11449     11447     11450     11450     11453     11454
     11450     11453     11455     11450     11453     11456     11451     11450     11452
     11451     11450     11453     11452     11450     11453     11453     11456     11457
     11453     11456     11458     11453     11456     11459     11454     11453     11455
     11454     11453     11456     11455     11453     11456     11456     11459     11460
     11456     11459     11461     11456     11459     11462     11457     11456     11458
     11457     11456     11459     11458     11456     11459     11459     11462     11463
     11459     11462     11464     11459     11462     11465     11460     11459     11461
     11460     11459     11462     11461     11459     11462     11462     11465     11466
     11462     11465     11467     11463     11462     11464     11463     11462     11465
     11464     11462     11465     11465     11467     11468     11465     11467     11469
     11466     11465     11467     11467     11469     11470     11467     11469     11471
     11467     11469     11472     11468     11467     11469     11469     11472     11473
     11469     11472     11474     11469     11472     11475     11470     11469     11471
     11470     11469     11472     11471     11469     11472     11472     11475     11476
     11472     11475     11477     11472     11475     11478     11473     11472     11474
     11473     11472     11475     11474     11472     11475     11475     11478     11479
     11475     11478     11480     11475     11478     11481     11476     11475     11477
     11476     11475     11478     11477     11475     11478     11478     11481     11482
     11478     11481     11483     11478     11481     11484     11479     11478     11480
     11479     11478     11481     11480     11478     11481     11481     11484     11485
     11481     11484     11486     11481     11484     11487     11482     11481     11483
     11482     11481     11484     11483     11481     11484     11484     11487     11488
     11484     11487     11489     11484     11487     11490     11485     11484     11486
     11485     11484     11487     11486     11484     11487     11487     11490     11491
     11487     11490     11492     11487     11490     11493     11488     11487     11489
     11488     11487     11490     11489     11487     11490     11491     11490     11492
     11491     11490     11493     11492     11490     11493     11494     11497     11498
     11494     11497     11499     11494     11497     11500     11495     11494     11496
     11495     11494     11497     11496     11494     11497     11497     11500     11501
     11497     11500     11502     11497     11500     11503     11498     11497     11499
     11498     11497     11500     11499     11497     11500     11500     11503     11504
     11500     11503     11505     11500     11503     11506     11501     11500     11502
     11501     11500     11503     11502     11500     11503     11503     11506     11507
     11503     11506     11508     11503     11506     11509     11504     11503     11505
     11504     11503     11506     11505     11503     11506     11506     11509     11510
     11506     11509     11511     11506     11509     11512     11507     11506     11508
     11507     11506     11509     11508     11506     11509     11509     11512     11513
     11509     11512     11514     11510     11509     11511     11510     11509     11512
     11511     11509     11512     11512     11514     11515     11512     11514     11516
     11513     11512     11514     11514     11516     11517     11514     11516     11518
     11514     11516     11519     11515     11514     11516     11516     11519     11520
     11516     11519     11521     11516     11519     11522     11517     11516     11518
     11517     11516     11519     11518     11516     11519     11519     11522     11523
     11519     11522     11524     11519     11522     11525     11520     11519     11521
     11520     11519     11522     11521     11519     11522     11522     11525     11526
     11522     11525     11527     11522     11525     11528     11523     11522     11524
     11523     11522     11525     11524     11522     11525     11525     11528     11529
     11525     11528     11530     11525     11528     11531     11526     11525     11527
     11526     11525     11528     11527     11525     11528     11528     11531     11532
     11528     11531     11533     11528     11531     11534     11529     11528     11530
     11529     11528     11531     11530     11528     11531     11531     11534     11535
     11531     11534     11536     11531     11534     11537     11532     11531     11533
     11532     11531     11534     11533     11531     11534     11534     11537     11538
     11534     11537     11539     11534     11537     11540     11535     11534     11536
     11535     11534     11537     11536     11534     11537     11538     11537     11539
     11538     11537     11540     11539     11537     11540     11541     11542     11543
     11541     11542     11544     11541     11542     11557     11541     11545     11546
     11541     11545     11547     11541     11545     11548     11541     11549     11550
     11541     11549     11551     11541     11549     11552     11541     11553     11554
     11541     11553     11555     11541     11553     11556     11542     11541     11545
     11542     11541     11549     11542     11541     11553     11542     11557     11558
     11542     11557     11559     11542     11557     11563     11543     11542     11544
     11543     11542     11557     11544     11542     11557     11545     11541     11549
     11545     11541     11553     11546     11545     11547     11546     11545     11548
     11547     11545     11548     11549     11541     11553     11550     11549     11551
     11550     11549     11552     11551     11549     11552     11554     11553     11555
     11554     11553     11556     11555     11553     11556     11557     11563     11560
     11558     11557     11559     11558     11557     11563     11559     11557     11563
     11560     11564     11565     11561     11560     11562     11561     11560     11563
     11561     11560     11564     11562     11560     11563     11562     11560     11564
     11563     11560     11564     11564     11565     11566     11564     11565     11567
     11564     11565     11568     11565     11568     11569     11565     11568     11570
     11565     11568     11576     11566     11565     11567     11566     11565     11568
     11567     11565     11568     11568     11570     11571     11568     11576     11577
     11568     11576     11578     11568     11576     11579     11569     11568     11570
     11569     11568     11576     11570     11568     11576     11570     11571     11572
     11570     11571     11573     11571     11573     11574     11571     11573     11575
     11571     11573     11585     11572     11571     11573     11573     11585     11586
     11573     11585     11587     11573     11585     11588     11574     11573     11575
     11574     11573     11585     11575     11573     11585     11576     11579     11580
     11577     11576     11578     11577     11576     11579     11578     11576     11579
     11579     11580     11581     11579     11580     11582     11580     11582     11583
     11580     11582     11584     11580     11582     11632     11581     11580     11582
     11582     11632     11633     11582     11632     11634     11582     11632     11635
     11583     11582     11584     11583     11582     11632     11584     11582     11632
     11585     11588     11589     11585     11588     11590     11585     11588     11591
     11586     11585     11587     11586     11585     11588     11587     11585     11588
     11588     11591     11592     11588     11591     11593     11588     11591     11594
     11589     11588     11590     11589     11588     11591     11590     11588     11591
     11591     11594     11595     11591     11594     11596     11591     11594     11597
     11592     11591     11593     11592     11591     11594     11593     11591     11594
     11594     11597     11598     11594     11597     11599     11594     11597     11600
     11595     11594     11596     11595     11594     11597     11596     11594     11597
     11597     11600     11601     11597     11600     11602     11597     11600     11603
     11598     11597     11599     11598     11597     11600     11599     11597     11600
     11600     11603     11604     11600     11603     11605     11601     11600     11602
     11601     11600     11603     11602     11600     11603     11603     11605     11606
     11603     11605     11607     11604     11603     11605     11605     11607     11608
     11605     11607     11609     11605     11607     11610     11606     11605     11607
     11607     11610     11611     11607     11610     11612     11607     11610     11613
     11608     11607     11609     11608     11607     11610     11609     11607     11610
     11610     11613     11614     11610     11613     11615     11610     11613     11616
     11611     11610     11612     11611     11610     11613     11612     11610     11613
     11613     11616     11617     11613     11616     11618     11613     11616     11619
     11614     11613     11615     11614     11613     11616     11615     11613     11616
     11616     11619     11620     11616     11619     11621     11616     11619     11622
     11617     11616     11618     11617     11616     11619     11618     11616     11619
     11619     11622     11623     11619     11622     11624     11619     11622     11625
     11620     11619     11621     11620     11619     11622     11621     11619     11622
     11622     11625     11626     11622     11625     11627     11622     11625     11628
     11623     11622     11624     11623     11622     11625     11624     11622     11625
     11625     11628     11629     11625     11628     11630     11625     11628     11631
     11626     11625     11627     11626     11625     11628     11627     11625     11628
     11629     11628     11630     11629     11628     11631     11630     11628     11631
     11632     11635     11636     11632     11635     11637     11632     11635     11638
     11633     11632     11634     11633     11632     11635     11634     11632     11635
     11635     11638     11639     11635     11638     11640     11635     11638     11641
     11636     11635     11637     11636     11635     11638     11637     11635     11638
     11638     11641     11642     11638     11641     11643     11638     11641     11644
     11639     11638     11640     11639     11638     11641     11640     11638     11641
     11641     11644     11645     11641     11644     11646     11641     11644     11647
     11642     11641     11643     11642     11641     11644     11643     11641     11644
     11644     11647     11648     11644     11647     11649     11644     11647     11650
     11645     11644     11646     11645     11644     11647     11646     11644     11647
     11647     11650     11651     11647     11650     11652     11648     11647     11649
     11648     11647     11650     11649     11647     11650     11650     11652     11653
     11650     11652     11654     11651     11650     11652     11652     11654     11655
     11652     11654     11656     11652     11654     11657     11653     11652     11654
     11654     11657     11658     11654     11657     11659     11654     11657     11660
     11655     11654     11656     11655     11654     11657     11656     11654     11657
     11657     11660     11661     11657     11660     11662     11657     11660     11663
     11658     11657     11659     11658     11657     11660     11659     11657     11660
     11660     11663     11664     11660     11663     11665     11660     11663     11666
     11661     11660     11662     11661     11660     11663     11662     11660     11663
     11663     11666     11667     11663     11666     11668     11663     11666     11669
     11664     11663     11665     11664     11663     11666     11665     11663     11666
     11666     11669     11670     11666     11669     11671     11666     11669     11672
     11667     11666     11668     11667     11666     11669     11668     11666     11669
     11669     11672     11673     11669     11672     11674     11669     11672     11675
     11670     11669     11671     11670     11669     11672     11671     11669     11672
     11672     11675     11676     11672     11675     11677     11672     11675     11678
     11673     11672     11674     11673     11672     11675     11674     11672     11675
     11676     11675     11677     11676     11675     11678     11677     11675     11678
     11679     11680     11681     11679     11680     11682     11679     11680     11695
     11679     11683     11684     11679     11683     11685     11679     11683     11686
     11679     11687     11688     11679     11687     11689     11679     11687     11690
     11679     11691     11692     11679     11691     11693     11679     11691     11694
     11680     11679     11683     11680     11679     11687     11680     11679     11691
     11680     11695     11696     11680     11695     11697     11680     11695     11701
     11681     11680     11682     11681     11680     11695     11682     11680     11695
     11683     11679     11687     11683     11679     11691     11684     11683     11685
     11684     11683     11686     11685     11683     11686     11687     11679     11691
     11688     11687     11689     11688     11687     11690     11689     11687     11690
     11692     11691     11693     11692     11691     11694     11693     11691     11694
     11695     11701     11698     11696     11695     11697     11696     11695     11701
     11697     11695     11701     11698     11702     11703     11699     11698     11700
     11699     11698     11701     11699     11698     11702     11700     11698     11701
     11700     11698     11702     11701     11698     11702     11702     11703     11704
     11702     11703     11705     11702     11703     11706     11703     11706     11707
     11703     11706     11708     11703     11706     11714     11704     11703     11705
     11704     11703     11706     11705     11703     11706     11706     11708     11709
     11706     11714     11715     11706     11714     11716     11706     11714     11717
     11707     11706     11708     11707     11706     11714     11708     11706     11714
     11708     11709     11710     11708     11709     11711     11709     11711     11712
     11709     11711     11713     11709     11711     11723     11710     11709     11711
     11711     11723     11724     11711     11723     11725     11711     11723     11726
     11712     11711     11713     11712     11711     11723     11713     11711     11723
     11714     11717     11718     11715     11714     11716     11715     11714     11717
     11716     11714     11717     11717     11718     11719     11717     11718     11720
     11718     11720     11721     11718     11720     11722     11718     11720     11770
     11719     11718     11720     11720     11770     11771     11720     11770     11772
     11720     11770     11773     11721     11720     11722     11721     11720     11770
     11722     11720     11770     11723     11726     11727     11723     11726     11728
     11723     11726     11729     11724     11723     11725     11724     11723     11726
     11725     11723     11726     11726     11729     11730     11726     11729     11731
     11726     11729     11732     11727     11726     11728     11727     11726     11729
     11728     11726     11729     11729     11732     11733     11729     11732     11734
     11729     11732     11735     11730     11729     11731     11730     11729     11732
     11731     11729     11732     11732     11735     11736     11732     11735     11737
     11732     11735     11738     11733     11732     11734     11733     11732     11735
     11734     11732     11735     11735     11738     11739     11735     11738     11740
     11735     11738     11741     11736     11735     11737     11736     11735     11738
     11737     11735     11738     11738     11741     11742     11738     11741     11743
     11739     11738     11740     11739     11738     11741     11740     11738     11741
     11741     11743     11744     11741     11743     11745     11742     11741     11743
     11743     11745     11746     11743     11745     11747     11743     11745     11748
     11744     11743     11745     11745     11748     11749     11745     11748     11750
     11745     11748     11751     11746     11745     11747     11746     11745     11748
     11747     11745     11748     11748     11751     11752     11748     11751     11753
     11748     11751     11754     11749     11748     11750     11749     11748     11751
     11750     11748     11751     11751     11754     11755     11751     11754     11756
     11751     11754     11757     11752     11751     11753     11752     11751     11754
     11753     11751     11754     11754     11757     11758     11754     11757     11759
     11754     11757     11760     11755     11754     11756     11755     11754     11757
     11756     11754     11757     11757     11760     11761     11757     11760     11762
     11757     11760     11763     11758     11757     11759     11758     11757     11760
     11759     11757     11760     11760     11763     11764     11760     11763     11765
     11760     11763     11766     11761     11760     11762     11761     11760     11763
     11762     11760     11763     11763     11766     11767     11763     11766     11768
     11763     11766     11769     11764     11763     11765     11764     11763     11766
     11765     11763     11766     11767     11766     11768     11767     11766     11769
     11768     11766     11769     11770     11773     11774     11770     11773     11775
     11770     11773     11776     11771     11770     11772     11771     11770     11773
     11772     11770     11773     11773     11776     11777     11773     11776     11778
     11773     11776     11779     11774     11773     11775     11774     11773     11776
     11775     11773     11776     11776     11779     11780     11776     11779     11781
     11776     11779     11782     11777     11776     11778     11777     11776     11779
     11778     11776     11779     11779     11782     11783     11779     11782     11784
     11779     11782     11785     11780     11779     11781     11780     11779     11782
     11781     11779     11782     11782     11785     11786     11782     11785     11787
     11782     11785     11788     11783     11782     11784     11783     11782     11785
     11784     11782     11785     11785     11788     11789     11785     11788     11790
     11786     11785     11787     11786     11785     11788     11787     11785     11788
     11788     11790     11791     11788     11790     11792     11789     11788     11790
     11790     11792     11793     11790     11792     11794     11790     11792     11795
     11791     11790     11792     11792     11795     11796     11792     11795     11797
     11792     11795     11798     11793     11792     11794     11793     11792     11795
     11794     11792     11795     11795     11798     11799     11795     11798     11800
     11795     11798     11801     11796     11795     11797     11796     11795     11798
     11797     11795     11798     11798     11801     11802     11798     11801     11803
     11798     11801     11804     11799     11798     11800     11799     11798     11801
     11800     11798     11801     11801     11804     11805     11801     11804     11806
     11801     11804     11807     11802     11801     11803     11802     11801     11804
     11803     11801     11804     11804     11807     11808     11804     11807     11809
     11804     11807     11810     11805     11804     11806     11805     11804     11807
     11806     11804     11807     11807     11810     11811     11807     11810     11812
     11807     11810     11813     11808     11807     11809     11808     11807     11810
     11809     11807     11810     11810     11813     11814     11810     11813     11815
     11810     11813     11816     11811     11810     11812     11811     11810     11813
     11812     11810     11813     11814     11813     11815     11814     11813     11816
     11815     11813     11816     11817     11818     11819     11817     11818     11820
     11817     11818     11833     11817     11821     11822     11817     11821     11823
     11817     11821     11824     11817     11825     11826     11817     11825     11827
     11817     11825     11828     11817     11829     11830     11817     11829     11831
     11817     11829     11832     11818     11817     11821     11818     11817     11825
     11818     11817     11829     11818     11833     11834     11818     11833     11835
     11818     11833     11839     11819     11818     11820     11819     11818     11833
     11820     11818     11833     11821     11817     11825     11821     11817     11829
     11822     11821     11823     11822     11821     11824     11823     11821     11824
     11825     11817     11829     11826     11825     11827     11826     11825     11828
     11827     11825     11828     11830     11829     11831     11830     11829     11832
     11831     11829     11832     11833     11839     11836     11834     11833     11835
     11834     11833     11839     11835     11833     11839     11836     11840     11841
     11837     11836     11838     11837     11836     11839     11837     11836     11840
     11838     11836     11839     11838     11836     11840     11839     11836     11840
     11840     11841     11842     11840     11841     11843     11840     11841     11844
     11841     11844     11845     11841     11844     11846     11841     11844     11852
     11842     11841     11843     11842     11841     11844     11843     11841     11844
     11844     11846     11847     11844     11852     11853     11844     11852     11854
     11844     11852     11855     11845     11844     11846     11845     11844     11852
     11846     11844     11852     11846     11847     11848     11846     11847     11849
     11847     11849     11850     11847     11849     11851     11847     11849     11861
     11848     11847     11849     11849     11861     11862     11849     11861     11863
     11849     11861     11864     11850     11849     11851     11850     11849     11861
     11851     11849     11861     11852     11855     11856     11853     11852     11854
     11853     11852     11855     11854     11852     11855     11855     11856     11857
     11855     11856     11858     11856     11858     11859     11856     11858     11860
     11856     11858     11908     11857     11856     11858     11858     11908     11909
     11858     11908     11910     11858     11908     11911     11859     11858     11860
     11859     11858     11908     11860     11858     11908     11861     11864     11865
     11861     11864     11866     11861     11864     11867     11862     11861     11863
     11862     11861     11864     11863     11861     11864     11864     11867     11868
     11864     11867     11869     11864     11867     11870     11865     11864     11866
     11865     11864     11867     11866     11864     11867     11867     11870     11871
     11867     11870     11872     11867     11870     11873     11868     11867     11869
     11868     11867     11870     11869     11867     11870     11870     11873     11874
     11870     11873     11875     11870     11873     11876     11871     11870     11872
     11871     11870     11873     11872     11870     11873     11873     11876     11877
     11873     11876     11878     11873     11876     11879     11874     11873     11875
     11874     11873     11876     11875     11873     11876     11876     11879     11880
     11876     11879     11881     11877     11876     11878     11877     11876     11879
     11878     11876     11879     11879     11881     11882     11879     11881     11883
     11880     11879     11881     11881     11883     11884     11881     11883     11885
     11881     11883     11886     11882     11881     11883     11883     11886     11887
     11883     11886     11888     11883     11886     11889     11884     11883     11885
     11884     11883     11886     11885     11883     11886     11886     11889     11890
     11886     11889     11891     11886     11889     11892     11887     11886     11888
     11887     11886     11889     11888     11886     11889     11889     11892     11893
     11889     11892     11894     11889     11892     11895     11890     11889     11891
     11890     11889     11892     11891     11889     11892     11892     11895     11896
     11892     11895     11897     11892     11895     11898     11893     11892     11894
     11893     11892     11895     11894     11892     11895     11895     11898     11899
     11895     11898     11900     11895     11898     11901     11896     11895     11897
     11896     11895     11898     11897     11895     11898     11898     11901     11902
     11898     11901     11903     11898     11901     11904     11899     11898     11900
     11899     11898     11901     11900     11898     11901     11901     11904     11905
     11901     11904     11906     11901     11904     11907     11902     11901     11903
     11902     11901     11904     11903     11901     11904     11905     11904     11906
     11905     11904     11907     11906     11904     11907     11908     11911     11912
     11908     11911     11913     11908     11911     11914     11909     11908     11910
     11909     11908     11911     11910     11908     11911     11911     11914     11915
     11911     11914     11916     11911     11914     11917     11912     11911     11913
     11912     11911     11914     11913     11911     11914     11914     11917     11918
     11914     11917     11919     11914     11917     11920     11915     11914     11916
     11915     11914     11917     11916     11914     11917     11917     11920     11921
     11917     11920     11922     11917     11920     11923     11918     11917     11919
     11918     11917     11920     11919     11917     11920     11920     11923     11924
     11920     11923     11925     11920     11923     11926     11921     11920     11922
     11921     11920     11923     11922     11920     11923     11923     11926     11927
     11923     11926     11928     11924     11923     11925     11924     11923     11926
     11925     11923     11926     11926     11928     11929     11926     11928     11930
     11927     11926     11928     11928     11930     11931     11928     11930     11932
     11928     11930     11933     11929     11928     11930     11930     11933     11934
     11930     11933     11935     11930     11933     11936     11931     11930     11932
     11931     11930     11933     11932     11930     11933     11933     11936     11937
     11933     11936     11938     11933     11936     11939     11934     11933     11935
     11934     11933     11936     11935     11933     11936     11936     11939     11940
     11936     11939     11941     11936     11939     11942     11937     11936     11938
     11937     11936     11939     11938     11936     11939     11939     11942     11943
     11939     11942     11944     11939     11942     11945     11940     11939     11941
     11940     11939     11942     11941     11939     11942     11942     11945     11946
     11942     11945     11947     11942     11945     11948     11943     11942     11944
     11943     11942     11945     11944     11942     11945     11945     11948     11949
     11945     11948     11950     11945     11948     11951     11946     11945     11947
     11946     11945     11948     11947     11945     11948     11948     11951     11952
     11948     11951     11953     11948     11951     11954     11949     11948     11950
     11949     11948     11951     11950     11948     11951     11952     11951     11953
     11952     11951     11954     11953     11951     11954     11955     11956     11957
     11955     11956     11958     11955     11956     11971     11955     11959     11960
     11955     11959     11961     11955     11959     11962     11955     11963     11964
     11955     11963     11965     11955     11963     11966     11955     11967     11968
     11955     11967     11969     11955     11967     11970     11956     11955     11959
     11956     11955     11963     11956     11955     11967     11956     11971     11972
     11956     11971     11973     11956     11971     11977     11957     11956     11958
     11957     11956     11971     11958     11956     11971     11959     11955     11963
     11959     11955     11967     11960     11959     11961     11960     11959     11962
     11961     11959     11962     11963     11955     11967     11964     11963     11965
     11964     11963     11966     11965     11963     11966     11968     11967     11969
     11968     11967     11970     11969     11967     11970     11971     11977     11974
     11972     11971     11973     11972     11971     11977     11973     11971     11977
     11974     11978     11979     11975     11974     11976     11975     11974     11977
     11975     11974     11978     11976     11974     11977     11976     11974     11978
     11977     11974     11978     11978     11979     11980     11978     11979     11981
     11978     11979     11982     11979     11982     11983     11979     11982     11984
     11979     11982     11990     11980     11979     11981     11980     11979     11982
     11981     11979     11982     11982     11984     11985     11982     11990     11991
     11982     11990     11992     11982     11990     11993     11983     11982     11984
     11983     11982     11990     11984     11982     11990     11984     11985     11986
     11984     11985     11987     11985     11987     11988     11985     11987     11989
     11985     11987     11999     11986     11985     11987     11987     11999     12000
     11987     11999     12001     11987     11999     12002     11988     11987     11989
     11988     11987     11999     11989     11987     11999     11990     11993     11994
     11991     11990     11992     11991     11990     11993     11992     11990     11993
     11993     11994     11995     11993     11994     11996     11994     11996     11997
     11994     11996     11998     11994     11996     12046     11995     11994     11996
     11996     12046     12047     11996     12046     12048     11996     12046     12049
     11997     11996     11998     11997     11996     12046     11998     11996     12046
     11999     12002     12003     11999     12002     12004     11999     12002     12005
     12000     11999     12001     12000     11999     12002     12001     11999     12002
     12002     12005     12006     12002     12005     12007     12002     12005     12008
     12003     12002     12004     12003     12002     12005     12004     12002     12005
     12005     12008     12009     12005     12008     12010     12005     12008     12011
     12006     12005     12007     12006     12005     12008     12007     12005     12008
     12008     12011     12012     12008     12011     12013     12008     12011     12014
     12009     12008     12010     12009     12008     12011     12010     12008     12011
     12011     12014     12015     12011     12014     12016     12011     12014     12017
     12012     12011     12013     12012     12011     12014     12013     12011     12014
     12014     12017     12018     12014     12017     12019     12015     12014     12016
     12015     12014     12017     12016     12014     12017     12017     12019     12020
     12017     12019     12021     12018     12017     12019     12019     12021     12022
     12019     12021     12023     12019     12021     12024     12020     12019     12021
     12021     12024     12025     12021     12024     12026     12021     12024     12027
     12022     12021     12023     12022     12021     12024     12023     12021     12024
     12024     12027     12028     12024     12027     12029     12024     12027     12030
     12025     12024     12026     12025     12024     12027     12026     12024     12027
     12027     12030     12031     12027     12030     12032     12027     12030     12033
     12028     12027     12029     12028     12027     12030     12029     12027     12030
     12030     12033     12034     12030     12033     12035     12030     12033     12036
     12031     12030     12032     12031     12030     12033     12032     12030     12033
     12033     12036     12037     12033     12036     12038     12033     12036     12039
     12034     12033     12035     12034     12033     12036     12035     12033     12036
     12036     12039     12040     12036     12039     12041     12036     12039     12042
     12037     12036     12038     12037     12036     12039     12038     12036     12039
     12039     12042     12043     12039     12042     12044     12039     12042     12045
     12040     12039     12041     12040     12039     12042     12041     12039     12042
     12043     12042     12044     12043     12042     12045     12044     12042     12045
     12046     12049     12050     12046     12049     12051     12046     12049     12052
     12047     12046     12048     12047     12046     12049     12048     12046     12049
     12049     12052     12053     12049     12052     12054     12049     12052     12055
     12050     12049     12051     12050     12049     12052     12051     12049     12052
     12052     12055     12056     12052     12055     12057     12052     12055     12058
     12053     12052     12054     12053     12052     12055     12054     12052     12055
     12055     12058     12059     12055     12058     12060     12055     12058     12061
     12056     12055     12057     12056     12055     12058     12057     12055     12058
     12058     12061     12062     12058     12061     12063     12058     12061     12064
     12059     12058     12060     12059     12058     12061     12060     12058     12061
     12061     12064     12065     12061     12064     12066     12062     12061     12063
     12062     12061     12064     12063     12061     12064     12064     12066     12067
     12064     12066     12068     12065     12064     12066     12066     12068     12069
     12066     12068     12070     12066     12068     12071     12067     12066     12068
     12068     12071     12072     12068     12071     12073     12068     12071     12074
     12069     12068     12070     12069     12068     12071     12070     12068     12071
     12071     12074     12075     12071     12074     12076     12071     12074     12077
     12072     12071     12073     12072     12071     12074     12073     12071     12074
     12074     12077     12078     12074     12077     12079     12074     12077     12080
     12075     12074     12076     12075     12074     12077     12076     12074     12077
     12077     12080     12081     12077     12080     12082     12077     12080     12083
     12078     12077     12079     12078     12077     12080     12079     12077     12080
     12080     12083     12084     12080     12083     12085     12080     12083     12086
     12081     12080     12082     12081     12080     12083     12082     12080     12083
     12083     12086     12087     12083     12086     12088     12083     12086     12089
     12084     12083     12085     12084     12083     12086     12085     12083     12086
     12086     12089     12090     12086     12089     12091     12086     12089     12092
     12087     12086     12088     12087     12086     12089     12088     12086     12089
     12090     12089     12091     12090     12089     12092     12091     12089     12092
     12093     12094     12095     12093     12094     12096     12093     12094     12109
     12093     12097     12098     12093     12097     12099     12093     12097     12100
     12093     12101     12102     12093     12101     12103     12093     12101     12104
     12093     12105     12106     12093     12105     12107     12093     12105     12108
     12094     12093     12097     12094     12093     12101     12094     12093     12105
     12094     12109     12110     12094     12109     12111     12094     12109     12115
     12095     12094     12096     12095     12094     12109     12096     12094     12109
     12097     12093     12101     12097     12093     12105     12098     12097     12099
     12098     12097     12100     12099     12097     12100     12101     12093     12105
     12102     12101     12103     12102     12101     12104     12103     12101     12104
     12106     12105     12107     12106     12105     12108     12107     12105     12108
     12109     12115     12112     12110     12109     12111     12110     12109     12115
     12111     12109     12115     12112     12116     12117     12113     12112     12114
     12113     12112     12115     12113     12112     12116     12114     12112     12115
     12114     12112     12116     12115     12112     12116     12116     12117     12118
     12116     12117     12119     12116     12117     12120     12117     12120     12121
     12117     12120     12122     12117     12120     12128     12118     12117     12119
     12118     12117     12120     12119     12117     12120     12120     12122     12123
     12120     12128     12129     12120     12128     12130     12120     12128     12131
     12121     12120     12122     12121     12120     12128     12122     12120     12128
     12122     12123     12124     12122     12123     12125     12123     12125     12126
     12123     12125     12127     12123     12125     12137     12124     12123     12125
     12125     12137     12138     12125     12137     12139     12125     12137     12140
     12126     12125     12127     12126     12125     12137     12127     12125     12137
     12128     12131     12132     12129     12128     12130     12129     12128     12131
     12130     12128     12131     12131     12132     12133     12131     12132     12134
     12132     12134     12135     12132     12134     12136     12132     12134     12184
     12133     12132     12134     12134     12184     12185     12134     12184     12186
     12134     12184     12187     12135     12134     12136     12135     12134     12184
     12136     12134     12184     12137     12140     12141     12137     12140     12142
     12137     12140     12143     12138     12137     12139     12138     12137     12140
     12139     12137     12140     12140     12143     12144     12140     12143     12145
     12140     12143     12146     12141     12140     12142     12141     12140     12143
     12142     12140     12143     12143     12146     12147     12143     12146     12148
     12143     12146     12149     12144     12143     12145     12144     12143     12146
     12145     12143     12146     12146     12149     12150     12146     12149     12151
     12146     12149     12152     12147     12146     12148     12147     12146     12149
     12148     12146     12149     12149     12152     12153     12149     12152     12154
     12149     12152     12155     12150     12149     12151     12150     12149     12152
     12151     12149     12152     12152     12155     12156     12152     12155     12157
     12153     12152     12154     12153     12152     12155     12154     12152     12155
     12155     12157     12158     12155     12157     12159     12156     12155     12157
     12157     12159     12160     12157     12159     12161     12157     12159     12162
     12158     12157     12159     12159     12162     12163     12159     12162     12164
     12159     12162     12165     12160     12159     12161     12160     12159     12162
     12161     12159     12162     12162     12165     12166     12162     12165     12167
     12162     12165     12168     12163     12162     12164     12163     12162     12165
     12164     12162     12165     12165     12168     12169     12165     12168     12170
     12165     12168     12171     12166     12165     12167     12166     12165     12168
     12167     12165     12168     12168     12171     12172     12168     12171     12173
     12168     12171     12174     12169     12168     12170     12169     12168     12171
     12170     12168     12171     12171     12174     12175     12171     12174     12176
     12171     12174     12177     12172     12171     12173     12172     12171     12174
     12173     12171     12174     12174     12177     12178     12174     12177     12179
     12174     12177     12180     12175     12174     12176     12175     12174     12177
     12176     12174     12177     12177     12180     12181     12177     12180     12182
     12177     12180     12183     12178     12177     12179     12178     12177     12180
     12179     12177     12180     12181     12180     12182     12181     12180     12183
     12182     12180     12183     12184     12187     12188     12184     12187     12189
     12184     12187     12190     12185     12184     12186     12185     12184     12187
     12186     12184     12187     12187     12190     12191     12187     12190     12192
     12187     12190     12193     12188     12187     12189     12188     12187     12190
     12189     12187     12190     12190     12193     12194     12190     12193     12195
     12190     12193     12196     12191     12190     12192     12191     12190     12193
     12192     12190     12193     12193     12196     12197     12193     12196     12198
     12193     12196     12199     12194     12193     12195     12194     12193     12196
     12195     12193     12196     12196     12199     12200     12196     12199     12201
     12196     12199     12202     12197     12196     12198     12197     12196     12199
     12198     12196     12199     12199     12202     12203     12199     12202     12204
     12200     12199     12201     12200     12199     12202     12201     12199     12202
     12202     12204     12205     12202     12204     12206     12203     12202     12204
     12204     12206     12207     12204     12206     12208     12204     12206     12209
     12205     12204     12206     12206     12209     12210     12206     12209     12211
     12206     12209     12212     12207     12206     12208     12207     12206     12209
     12208     12206     12209     12209     12212     12213     12209     12212     12214
     12209     12212     12215     12210     12209     12211     12210     12209     12212
     12211     12209     12212     12212     12215     12216     12212     12215     12217
     12212     12215     12218     12213     12212     12214     12213     12212     12215
     12214     12212     12215     12215     12218     12219     12215     12218     12220
     12215     12218     12221     12216     12215     12217     12216     12215     12218
     12217     12215     12218     12218     12221     12222     12218     12221     12223
     12218     12221     12224     12219     12218     12220     12219     12218     12221
     12220     12218     12221     12221     12224     12225     12221     12224     12226
     12221     12224     12227     12222     12221     12223     12222     12221     12224
     12223     12221     12224     12224     12227     12228     12224     12227     12229
     12224     12227     12230     12225     12224     12226     12225     12224     12227
     12226     12224     12227     12228     12227     12229     12228     12227     12230
     12229     12227     12230     12231     12232     12233     12231     12232     12234
     12231     12232     12247     12231     12235     12236     12231     12235     12237
     12231     12235     12238     12231     12239     12240     12231     12239     12241
     12231     12239     12242     12231     12243     12244     12231     12243     12245
     12231     12243     12246     12232     12231     12235     12232     12231     12239
     12232     12231     12243     12232     12247     12248     12232     12247     12249
     12232     12247     12253     12233     12232     12234     12233     12232     12247
     12234     12232     12247     12235     12231     12239     12235     12231     12243
     12236     12235     12237     12236     12235     12238     12237     12235     12238
     12239     12231     12243     12240     12239     12241     12240     12239     12242
     12241     12239     12242     12244     12243     12245     12244     12243     12246
     12245     12243     12246     12247     12253     12250     12248     12247     12249
     12248     12247     12253     12249     12247     12253     12250     12254     12255
     12251     12250     12252     12251     12250     12253     12251     12250     12254
     12252     12250     12253     12252     12250     12254     12253     12250     12254
     12254     12255     12256     12254     12255     12257     12254     12255     12258
     12255     12258     12259     12255     12258     12260     12255     12258     12266
     12256     12255     12257     12256     12255     12258     12257     12255     12258
     12258     12260     12261     12258     12266     12267     12258     12266     12268
     12258     12266     12269     12259     12258     12260     12259     12258     12266
     12260     12258     12266     12260     12261     12262     12260     12261     12263
     12261     12263     12264     12261     12263     12265     12261     12263     12275
     12262     12261     12263     12263     12275     12276     12263     12275     12277
     12263     12275     12278     12264     12263     12265     12264     12263     12275
     12265     12263     12275     12266     12269     12270     12267     12266     12268
     12267     12266     12269     12268     12266     12269     12269     12270     12271
     12269     12270     12272     12270     12272     12273     12270     12272     12274
     12270     12272     12322     12271     12270     12272     12272     12322     12323
     12272     12322     12324     12272     12322     12325     12273     12272     12274
     12273     12272     12322     12274     12272     12322     12275     12278     12279
     12275     12278     12280     12275     12278     12281     12276     12275     12277
     12276     12275     12278     12277     12275     12278     12278     12281     12282
     12278     12281     12283     12278     12281     12284     12279     12278     12280
     12279     12278     12281     12280     12278     12281     12281     12284     12285
     12281     12284     12286     12281     12284     12287     12282     12281     12283
     12282     12281     12284     12283     12281     12284     12284     12287     12288
     12284     12287     12289     12284     12287     12290     12285     12284     12286
     12285     12284     12287     12286     12284     12287     12287     12290     12291
     12287     12290     12292     12287     12290     12293     12288     12287     12289
     12288     12287     12290     12289     12287     12290     12290     12293     12294
     12290     12293     12295     12291     12290     12292     12291     12290     12293
     12292     12290     12293     12293     12295     12296     12293     12295     12297
     12294     12293     12295     12295     12297     12298     12295     12297     12299
     12295     12297     12300     12296     12295     12297     12297     12300     12301
     12297     12300     12302     12297     12300     12303     12298     12297     12299
     12298     12297     12300     12299     12297     12300     12300     12303     12304
     12300     12303     12305     12300     12303     12306     12301     12300     12302
     12301     12300     12303     12302     12300     12303     12303     12306     12307
     12303     12306     12308     12303     12306     12309     12304     12303     12305
     12304     12303     12306     12305     12303     12306     12306     12309     12310
     12306     12309     12311     12306     12309     12312     12307     12306     12308
     12307     12306     12309     12308     12306     12309     12309     12312     12313
     12309     12312     12314     12309     12312     12315     12310     12309     12311
     12310     12309     12312     12311     12309     12312     12312     12315     12316
     12312     12315     12317     12312     12315     12318     12313     12312     12314
     12313     12312     12315     12314     12312     12315     12315     12318     12319
     12315     12318     12320     12315     12318     12321     12316     12315     12317
     12316     12315     12318     12317     12315     12318     12319     12318     12320
     12319     12318     12321     12320     12318     12321     12322     12325     12326
     12322     12325     12327     12322     12325     12328     12323     12322     12324
     12323     12322     12325     12324     12322     12325     12325     12328     12329
     12325     12328     12330     12325     12328     12331     12326     12325     12327
     12326     12325     12328     12327     12325     12328     12328     12331     12332
     12328     12331     12333     12328     12331     12334     12329     12328     12330
     12329     12328     12331     12330     12328     12331     12331     12334     12335
     12331     12334     12336     12331     12334     12337     12332     12331     12333
     12332     12331     12334     12333     12331     12334     12334     12337     12338
     12334     12337     12339     12334     12337     12340     12335     12334     12336
     12335     12334     12337     12336     12334     12337     12337     12340     12341
     12337     12340     12342     12338     12337     12339     12338     12337     12340
     12339     12337     12340     12340     12342     12343     12340     12342     12344
     12341     12340     12342     12342     12344     12345     12342     12344     12346
     12342     12344     12347     12343     12342     12344     12344     12347     12348
     12344     12347     12349     12344     12347     12350     12345     12344     12346
     12345     12344     12347     12346     12344     12347     12347     12350     12351
     12347     12350     12352     12347     12350     12353     12348     12347     12349
     12348     12347     12350     12349     12347     12350     12350     12353     12354
     12350     12353     12355     12350     12353     12356     12351     12350     12352
     12351     12350     12353     12352     12350     12353     12353     12356     12357
     12353     12356     12358     12353     12356     12359     12354     12353     12355
     12354     12353     12356     12355     12353     12356     12356     12359     12360
     12356     12359     12361     12356     12359     12362     12357     12356     12358
     12357     12356     12359     12358     12356     12359     12359     12362     12363
     12359     12362     12364     12359     12362     12365     12360     12359     12361
     12360     12359     12362     12361     12359     12362     12362     12365     12366
     12362     12365     12367     12362     12365     12368     12363     12362     12364
     12363     12362     12365     12364     12362     12365     12366     12365     12367
     12366     12365     12368     12367     12365     12368     12369     12370     12371
     12369     12370     12372     12369     12370     12385     12369     12373     12374
     12369     12373     12375     12369     12373     12376     12369     12377     12378
     12369     12377     12379     12369     12377     12380     12369     12381     12382
     12369     12381     12383     12369     12381     12384     12370     12369     12373
     12370     12369     12377     12370     12369     12381     12370     12385     12386
     12370     12385     12387     12370     12385     12391     12371     12370     12372
     12371     12370     12385     12372     12370     12385     12373     12369     12377
     12373     12369     12381     12374     12373     12375     12374     12373     12376
     12375     12373     12376     12377     12369     12381     12378     12377     12379
     12378     12377     12380     12379     12377     12380     12382     12381     12383
     12382     12381     12384     12383     12381     12384     12385     12391     12388
     12386     12385     12387     12386     12385     12391     12387     12385     12391
     12388     12392     12393     12389     12388     12390     12389     12388     12391
     12389     12388     12392     12390     12388     12391     12390     12388     12392
     12391     12388     12392     12392     12393     12394     12392     12393     12395
     12392     12393     12396     12393     12396     12397     12393     12396     12398
     12393     12396     12404     12394     12393     12395     12394     12393     12396
     12395     12393     12396     12396     12398     12399     12396     12404     12405
     12396     12404     12406     12396     12404     12407     12397     12396     12398
     12397     12396     12404     12398     12396     12404     12398     12399     12400
     12398     12399     12401     12399     12401     12402     12399     12401     12403
     12399     12401     12413     12400     12399     12401     12401     12413     12414
     12401     12413     12415     12401     12413     12416     12402     12401     12403
     12402     12401     12413     12403     12401     12413     12404     12407     12408
     12405     12404     12406     12405     12404     12407     12406     12404     12407
     12407     12408     12409     12407     12408     12410     12408     12410     12411
     12408     12410     12412     12408     12410     12460     12409     12408     12410
     12410     12460     12461     12410     12460     12462     12410     12460     12463
     12411     12410     12412     12411     12410     12460     12412     12410     12460
     12413     12416     12417     12413     12416     12418     12413     12416     12419
     12414     12413     12415     12414     12413     12416     12415     12413     12416
     12416     12419     12420     12416     12419     12421     12416     12419     12422
     12417     12416     12418     12417     12416     12419     12418     12416     12419
     12419     12422     12423     12419     12422     12424     12419     12422     12425
     12420     12419     12421     12420     12419     12422     12421     12419     12422
     12422     12425     12426     12422     12425     12427     12422     12425     12428
     12423     12422     12424     12423     12422     12425     12424     12422     12425
     12425     12428     12429     12425     12428     12430     12425     12428     12431
     12426     12425     12427     12426     12425     12428     12427     12425     12428
     12428     12431     12432     12428     12431     12433     12429     12428     12430
     12429     12428     12431     12430     12428     12431     12431     12433     12434
     12431     12433     12435     12432     12431     12433     12433     12435     12436
     12433     12435     12437     12433     12435     12438     12434     12433     12435
     12435     12438     12439     12435     12438     12440     12435     12438     12441
     12436     12435     12437     12436     12435     12438     12437     12435     12438
     12438     12441     12442     12438     12441     12443     12438     12441     12444
     12439     12438     12440     12439     12438     12441     12440     12438     12441
     12441     12444     12445     12441     12444     12446     12441     12444     12447
     12442     12441     12443     12442     12441     12444     12443     12441     12444
     12444     12447     12448     12444     12447     12449     12444     12447     12450
     12445     12444     12446     12445     12444     12447     12446     12444     12447
     12447     12450     12451     12447     12450     12452     12447     12450     12453
     12448     12447     12449     12448     12447     12450     12449     12447     12450
     12450     12453     12454     12450     12453     12455     12450     12453     12456
     12451     12450     12452     12451     12450     12453     12452     12450     12453
     12453     12456     12457     12453     12456     12458     12453     12456     12459
     12454     12453     12455     12454     12453     12456     12455     12453     12456
     12457     12456     12458     12457     12456     12459     12458     12456     12459
     12460     12463     12464     12460     12463     12465     12460     12463     12466
     12461     12460     12462     12461     12460     12463     12462     12460     12463
     12463     12466     12467     12463     12466     12468     12463     12466     12469
     12464     12463     12465     12464     12463     12466     12465     12463     12466
     12466     12469     12470     12466     12469     12471     12466     12469     12472
     12467     12466     12468     12467     12466     12469     12468     12466     12469
     12469     12472     12473     12469     12472     12474     12469     12472     12475
     12470     12469     12471     12470     12469     12472     12471     12469     12472
     12472     12475     12476     12472     12475     12477     12472     12475     12478
     12473     12472     12474     12473     12472     12475     12474     12472     12475
     12475     12478     12479     12475     12478     12480     12476     12475     12477
     12476     12475     12478     12477     12475     12478     12478     12480     12481
     12478     12480     12482     12479     12478     12480     12480     12482     12483
     12480     12482     12484     12480     12482     12485     12481     12480     12482
     12482     12485     12486     12482     12485     12487     12482     12485     12488
     12483     12482     12484     12483     12482     12485     12484     12482     12485
     12485     12488     12489     12485     12488     12490     12485     12488     12491
     12486     12485     12487     12486     12485     12488     12487     12485     12488
     12488     12491     12492     12488     12491     12493     12488     12491     12494
     12489     12488     12490     12489     12488     12491     12490     12488     12491
     12491     12494     12495     12491     12494     12496     12491     12494     12497
     12492     12491     12493     12492     12491     12494     12493     12491     12494
     12494     12497     12498     12494     12497     12499     12494     12497     12500
     12495     12494     12496     12495     12494     12497     12496     12494     12497
     12497     12500     12501     12497     12500     12502     12497     12500     12503
     12498     12497     12499     12498     12497     12500     12499     12497     12500
     12500     12503     12504     12500     12503     12505     12500     12503     12506
     12501     12500     12502     12501     12500     12503     12502     12500     12503
     12504     12503     12505     12504     12503     12506     12505     12503     12506
     12507     12508     12509     12507     12508     12510     12507     12508     12523
     12507     12511     12512     12507     12511     12513     12507     12511     12514
     12507     12515     12516     12507     12515     12517     12507     12515     12518
     12507     12519     12520     12507     12519     12521     12507     12519     12522
     12508     12507     12511     12508     12507     12515     12508     12507     12519
     12508     12523     12524     12508     12523     12525     12508     12523     12529
     12509     12508     12510     12509     12508     12523     12510     12508     12523
     12511     12507     12515     12511     12507     12519     12512     12511     12513
     12512     12511     12514     12513     12511     12514     12515     12507     12519
     12516     12515     12517     12516     12515     12518     12517     12515     12518
     12520     12519     12521     12520     12519     12522     12521     12519     12522
     12523     12529     12526     12524     12523     12525     12524     12523     12529
     12525     12523     12529     12526     12530     12531     12527     12526     12528
     12527     12526     12529     12527     12526     12530     12528     12526     12529
     12528     12526     12530     12529     12526     12530     12530     12531     12532
     12530     12531     12533     12530     12531     12534     12531     12534     12535
     12531     12534     12536     12531     12534     12542     12532     12531     12533
     12532     12531     12534     12533     12531     12534     12534     12536     12537
     12534     12542     12543     12534     12542     12544     12534     12542     12545
     12535     12534     12536     12535     12534     12542     12536     12534     12542
     12536     12537     12538     12536     12537     12539     12537     12539     12540
     12537     12539     12541     12537     12539     12551     12538     12537     12539
     12539     12551     12552     12539     12551     12553     12539     12551     12554
     12540     12539     12541     12540     12539     12551     12541     12539     12551
     12542     12545     12546     12543     12542     12544     12543     12542     12545
     12544     12542     12545     12545     12546     12547     12545     12546     12548
     12546     12548     12549     12546     12548     12550     12546     12548     12598
     12547     12546     12548     12548     12598     12599     12548     12598     12600
     12548     12598     12601     12549     12548     12550     12549     12548     12598
     12550     12548     12598     12551     12554     12555     12551     12554     12556
     12551     12554     12557     12552     12551     12553     12552     12551     12554
     12553     12551     12554     12554     12557     12558     12554     12557     12559
     12554     12557     12560     12555     12554     12556     12555     12554     12557
     12556     12554     12557     12557     12560     12561     12557     12560     12562
     12557     12560     12563     12558     12557     12559     12558     12557     12560
     12559     12557     12560     12560     12563     12564     12560     12563     12565
     12560     12563     12566     12561     12560     12562     12561     12560     12563
     12562     12560     12563     12563     12566     12567     12563     12566     12568
     12563     12566     12569     12564     12563     12565     12564     12563     12566
     12565     12563     12566     12566     12569     12570     12566     12569     12571
     12567     12566     12568     12567     12566     12569     12568     12566     12569
     12569     12571     12572     12569     12571     12573     12570     12569     12571
     12571     12573     12574     12571     12573     12575     12571     12573     12576
     12572     12571     12573     12573     12576     12577     12573     12576     12578
     12573     12576     12579     12574     12573     12575     12574     12573     12576
     12575     12573     12576     12576     12579     12580     12576     12579     12581
     12576     12579     12582     12577     12576     12578     12577     12576     12579
     12578     12576     12579     12579     12582     12583     12579     12582     12584
     12579     12582     12585     12580     12579     12581     12580     12579     12582
     12581     12579     12582     12582     12585     12586     12582     12585     12587
     12582     12585     12588     12583     12582     12584     12583     12582     12585
     12584     12582     12585     12585     12588     12589     12585     12588     12590
     12585     12588     12591     12586     12585     12587     12586     12585     12588
     12587     12585     12588     12588     12591     12592     12588     12591     12593
     12588     12591     12594     12589     12588     12590     12589     12588     12591
     12590     12588     12591     12591     12594     12595     12591     12594     12596
     12591     12594     12597     12592     12591     12593     12592     12591     12594
     12593     12591     12594     12595     12594     12596     12595     12594     12597
     12596     12594     12597     12598     12601     12602     12598     12601     12603
     12598     12601     12604     12599     12598     12600     12599     12598     12601
     12600     12598     12601     12601     12604     12605     12601     12604     12606
     12601     12604     12607     12602     12601     12603     12602     12601     12604
     12603     12601     12604     12604     12607     12608     12604     12607     12609
     12604     12607     12610     12605     12604     12606     12605     12604     12607
     12606     12604     12607     12607     12610     12611     12607     12610     12612
     12607     12610     12613     12608     12607     12609     12608     12607     12610
     12609     12607     12610     12610     12613     12614     12610     12613     12615
     12610     12613     12616     12611     12610     12612     12611     12610     12613
     12612     12610     12613     12613     12616     12617     12613     12616     12618
     12614     12613     12615     12614     12613     12616     12615     12613     12616
     12616     12618     12619     12616     12618     12620     12617     12616     12618
     12618     12620     12621     12618     12620     12622     12618     12620     12623
     12619     12618     12620     12620     12623     12624     12620     12623     12625
     12620     12623     12626     12621     12620     12622     12621     12620     12623
     12622     12620     12623     12623     12626     12627     12623     12626     12628
     12623     12626     12629     12624     12623     12625     12624     12623     12626
     12625     12623     12626     12626     12629     12630     12626     12629     12631
     12626     12629     12632     12627     12626     12628     12627     12626     12629
     12628     12626     12629     12629     12632     12633     12629     12632     12634
     12629     12632     12635     12630     12629     12631     12630     12629     12632
     12631     12629     12632     12632     12635     12636     12632     12635     12637
     12632     12635     12638     12633     12632     12634     12633     12632     12635
     12634     12632     12635     12635     12638     12639     12635     12638     12640
     12635     12638     12641     12636     12635     12637     12636     12635     12638
     12637     12635     12638     12638     12641     12642     12638     12641     12643
     12638     12641     12644     12639     12638     12640     12639     12638     12641
     12640     12638     12641     12642     12641     12643     12642     12641     12644
     12643     12641     12644     12645     12646     12647     12645     12646     12648
     12645     12646     12661     12645     12649     12650     12645     12649     12651
     12645     12649     12652     12645     12653     12654     12645     12653     12655
     12645     12653     12656     12645     12657     12658     12645     12657     12659
     12645     12657     12660     12646     12645     12649     12646     12645     12653
     12646     12645     12657     12646     12661     12662     12646     12661     12663
     12646     12661     12667     12647     12646     12648     12647     12646     12661
     12648     12646     12661     12649     12645     12653     12649     12645     12657
     12650     12649     12651     12650     12649     12652     12651     12649     12652
     12653     12645     12657     12654     12653     12655     12654     12653     12656
     12655     12653     12656     12658     12657     12659     12658     12657     12660
     12659     12657     12660     12661     12667     12664     12662     12661     12663
     12662     12661     12667     12663     12661     12667     12664     12668     12669
     12665     12664     12666     12665     12664     12667     12665     12664     12668
     12666     12664     12667     12666     12664     12668     12667     12664     12668
     12668     12669     12670     12668     12669     12671     12668     12669     12672
     12669     12672     12673     12669     12672     12674     12669     12672     12680
     12670     12669     12671     12670     12669     12672     12671     12669     12672
     12672     12674     12675     12672     12680     12681     12672     12680     12682
     12672     12680     12683     12673     12672     12674     12673     12672     12680
     12674     12672     12680     12674     12675     12676     12674     12675     12677
     12675     12677     12678     12675     12677     12679     12675     12677     12689
     12676     12675     12677     12677     12689     12690     12677     12689     12691
     12677     12689     12692     12678     12677     12679     12678     12677     12689
     12679     12677     12689     12680     12683     12684     12681     12680     12682
     12681     12680     12683     12682     12680     12683     12683     12684     12685
     12683     12684     12686     12684     12686     12687     12684     12686     12688
     12684     12686     12736     12685     12684     12686     12686     12736     12737
     12686     12736     12738     12686     12736     12739     12687     12686     12688
     12687     12686     12736     12688     12686     12736     12689     12692     12693
     12689     12692     12694     12689     12692     12695     12690     12689     12691
     12690     12689     12692     12691     12689     12692     12692     12695     12696
     12692     12695     12697     12692     12695     12698     12693     12692     12694
     12693     12692     12695     12694     12692     12695     12695     12698     12699
     12695     12698     12700     12695     12698     12701     12696     12695     12697
     12696     12695     12698     12697     12695     12698     12698     12701     12702
     12698     12701     12703     12698     12701     12704     12699     12698     12700
     12699     12698     12701     12700     12698     12701     12701     12704     12705
     12701     12704     12706     12701     12704     12707     12702     12701     12703
     12702     12701     12704     12703     12701     12704     12704     12707     12708
     12704     12707     12709     12705     12704     12706     12705     12704     12707
     12706     12704     12707     12707     12709     12710     12707     12709     12711
     12708     12707     12709     12709     12711     12712     12709     12711     12713
     12709     12711     12714     12710     12709     12711     12711     12714     12715
     12711     12714     12716     12711     12714     12717     12712     12711     12713
     12712     12711     12714     12713     12711     12714     12714     12717     12718
     12714     12717     12719     12714     12717     12720     12715     12714     12716
     12715     12714     12717     12716     12714     12717     12717     12720     12721
     12717     12720     12722     12717     12720     12723     12718     12717     12719
     12718     12717     12720     12719     12717     12720     12720     12723     12724
     12720     12723     12725     12720     12723     12726     12721     12720     12722
     12721     12720     12723     12722     12720     12723     12723     12726     12727
     12723     12726     12728     12723     12726     12729     12724     12723     12725
     12724     12723     12726     12725     12723     12726     12726     12729     12730
     12726     12729     12731     12726     12729     12732     12727     12726     12728
     12727     12726     12729     12728     12726     12729     12729     12732     12733
     12729     12732     12734     12729     12732     12735     12730     12729     12731
     12730     12729     12732     12731     12729     12732     12733     12732     12734
     12733     12732     12735     12734     12732     12735     12736     12739     12740
     12736     12739     12741     12736     12739     12742     12737     12736     12738
     12737     12736     12739     12738     12736     12739     12739     12742     12743
     12739     12742     12744     12739     12742     12745     12740     12739     12741
     12740     12739     12742     12741     12739     12742     12742     12745     12746
     12742     12745     12747     12742     12745     12748     12743     12742     12744
     12743     12742     12745     12744     12742     12745     12745     12748     12749
     12745     12748     12750     12745     12748     12751     12746     12745     12747
     12746     12745     12748     12747     12745     12748     12748     12751     12752
     12748     12751     12753     12748     12751     12754     12749     12748     12750
     12749     12748     12751     12750     12748     12751     12751     12754     12755
     12751     12754     12756     12752     12751     12753     12752     12751     12754
     12753     12751     12754     12754     12756     12757     12754     12756     12758
     12755     12754     12756     12756     12758     12759     12756     12758     12760
     12756     12758     12761     12757     12756     12758     12758     12761     12762
     12758     12761     12763     12758     12761     12764     12759     12758     12760
     12759     12758     12761     12760     12758     12761     12761     12764     12765
     12761     12764     12766     12761     12764     12767     12762     12761     12763
     12762     12761     12764     12763     12761     12764     12764     12767     12768
     12764     12767     12769     12764     12767     12770     12765     12764     12766
     12765     12764     12767     12766     12764     12767     12767     12770     12771
     12767     12770     12772     12767     12770     12773     12768     12767     12769
     12768     12767     12770     12769     12767     12770     12770     12773     12774
     12770     12773     12775     12770     12773     12776     12771     12770     12772
     12771     12770     12773     12772     12770     12773     12773     12776     12777
     12773     12776     12778     12773     12776     12779     12774     12773     12775
     12774     12773     12776     12775     12773     12776     12776     12779     12780
     12776     12779     12781     12776     12779     12782     12777     12776     12778
     12777     12776     12779     12778     12776     12779     12780     12779     12781
     12780     12779     12782     12781     12779     12782     12783     12784     12785
     12783     12784     12786     12783     12784     12799     12783     12787     12788
     12783     12787     12789     12783     12787     12790     12783     12791     12792
     12783     12791     12793     12783     12791     12794     12783     12795     12796
     12783     12795     12797     12783     12795     12798     12784     12783     12787
     12784     12783     12791     12784     12783     12795     12784     12799     12800
     12784     12799     12801     12784     12799     12805     12785     12784     12786
     12785     12784     12799     12786     12784     12799     12787     12783     12791
     12787     12783     12795     12788     12787     12789     12788     12787     12790
     12789     12787     12790     12791     12783     12795     12792     12791     12793
     12792     12791     12794     12793     12791     12794     12796     12795     12797
     12796     12795     12798     12797     12795     12798     12799     12805     12802
     12800     12799     12801     12800     12799     12805     12801     12799     12805
     12802     12806     12807     12803     12802     12804     12803     12802     12805
     12803     12802     12806     12804     12802     12805     12804     12802     12806
     12805     12802     12806     12806     12807     12808     12806     12807     12809
     12806     12807     12810     12807     12810     12811     12807     12810     12812
     12807     12810     12818     12808     12807     12809     12808     12807     12810
     12809     12807     12810     12810     12812     12813     12810     12818     12819
     12810     12818     12820     12810     12818     12821     12811     12810     12812
     12811     12810     12818     12812     12810     12818     12812     12813     12814
     12812     12813     12815     12813     12815     12816     12813     12815     12817
     12813     12815     12827     12814     12813     12815     12815     12827     12828
     12815     12827     12829     12815     12827     12830     12816     12815     12817
     12816     12815     12827     12817     12815     12827     12818     12821     12822
     12819     12818     12820     12819     12818     12821     12820     12818     12821
     12821     12822     12823     12821     12822     12824     12822     12824     12825
     12822     12824     12826     12822     12824     12874     12823     12822     12824
     12824     12874     12875     12824     12874     12876     12824     12874     12877
     12825     12824     12826     12825     12824     12874     12826     12824     12874
     12827     12830     12831     12827     12830     12832     12827     12830     12833
     12828     12827     12829     12828     12827     12830     12829     12827     12830
     12830     12833     12834     12830     12833     12835     12830     12833     12836
     12831     12830     12832     12831     12830     12833     12832     12830     12833
     12833     12836     12837     12833     12836     12838     12833     12836     12839
     12834     12833     12835     12834     12833     12836     12835     12833     12836
     12836     12839     12840     12836     12839     12841     12836     12839     12842
     12837     12836     12838     12837     12836     12839     12838     12836     12839
     12839     12842     12843     12839     12842     12844     12839     12842     12845
     12840     12839     12841     12840     12839     12842     12841     12839     12842
     12842     12845     12846     12842     12845     12847     12843     12842     12844
     12843     12842     12845     12844     12842     12845     12845     12847     12848
     12845     12847     12849     12846     12845     12847     12847     12849     12850
     12847     12849     12851     12847     12849     12852     12848     12847     12849
     12849     12852     12853     12849     12852     12854     12849     12852     12855
     12850     12849     12851     12850     12849     12852     12851     12849     12852
     12852     12855     12856     12852     12855     12857     12852     12855     12858
     12853     12852     12854     12853     12852     12855     12854     12852     12855
     12855     12858     12859     12855     12858     12860     12855     12858     12861
     12856     12855     12857     12856     12855     12858     12857     12855     12858
     12858     12861     12862     12858     12861     12863     12858     12861     12864
     12859     12858     12860     12859     12858     12861     12860     12858     12861
     12861     12864     12865     12861     12864     12866     12861     12864     12867
     12862     12861     12863     12862     12861     12864     12863     12861     12864
     12864     12867     12868     12864     12867     12869     12864     12867     12870
     12865     12864     12866     12865     12864     12867     12866     12864     12867
     12867     12870     12871     12867     12870     12872     12867     12870     12873
     12868     12867     12869     12868     12867     12870     12869     12867     12870
     12871     12870     12872     12871     12870     12873     12872     12870     12873
     12874     12877     12878     12874     12877     12879     12874     12877     12880
     12875     12874     12876     12875     12874     12877     12876     12874     12877
     12877     12880     12881     12877     12880     12882     12877     12880     12883
     12878     12877     12879     12878     12877     12880     12879     12877     12880
     12880     12883     12884     12880     12883     12885     12880     12883     12886
     12881     12880     12882     12881     12880     12883     12882     12880     12883
     12883     12886     12887     12883     12886     12888     12883     12886     12889
     12884     12883     12885     12884     12883     12886     12885     12883     12886
     12886     12889     12890     12886     12889     12891     12886     12889     12892
     12887     12886     12888     12887     12886     12889     12888     12886     12889
     12889     12892     12893     12889     12892     12894     12890     12889     12891
     12890     12889     12892     12891     12889     12892     12892     12894     12895
     12892     12894     12896     12893     12892     12894     12894     12896     12897
     12894     12896     12898     12894     12896     12899     12895     12894     12896
     12896     12899     12900     12896     12899     12901     12896     12899     12902
     12897     12896     12898     12897     12896     12899     12898     12896     12899
     12899     12902     12903     12899     12902     12904     12899     12902     12905
     12900     12899     12901     12900     12899     12902     12901     12899     12902
     12902     12905     12906     12902     12905     12907     12902     12905     12908
     12903     12902     12904     12903     12902     12905     12904     12902     12905
     12905     12908     12909     12905     12908     12910     12905     12908     12911
     12906     12905     12907     12906     12905     12908     12907     12905     12908
     12908     12911     12912     12908     12911     12913     12908     12911     12914
     12909     12908     12910     12909     12908     12911     12910     12908     12911
     12911     12914     12915     12911     12914     12916     12911     12914     12917
     12912     12911     12913     12912     12911     12914     12913     12911     12914
     12914     12917     12918     12914     12917     12919     12914     12917     12920
     12915     12914     12916     12915     12914     12917     12916     12914     12917
     12918     12917     12919     12918     12917     12920     12919     12917     12920
     12921     12922     12923     12921     12922     12924     12921     12922     12937
     12921     12925     12926     12921     12925     12927     12921     12925     12928
     12921     12929     12930     12921     12929     12931     12921     12929     12932
     12921     12933     12934     12921     12933     12935     12921     12933     12936
     12922     12921     12925     12922     12921     12929     12922     12921     12933
     12922     12937     12938     12922     12937     12939     12922     12937     12943
     12923     12922     12924     12923     12922     12937     12924     12922     12937
     12925     12921     12929     12925     12921     12933     12926     12925     12927
     12926     12925     12928     12927     12925     12928     12929     12921     12933
     12930     12929     12931     12930     12929     12932     12931     12929     12932
     12934     12933     12935     12934     12933     12936     12935     12933     12936
     12937     12943     12940     12938     12937     12939     12938     12937     12943
     12939     12937     12943     12940     12944     12945     12941     12940     12942
     12941     12940     12943     12941     12940     12944     12942     12940     12943
     12942     12940     12944     12943     12940     12944     12944     12945     12946
     12944     12945     12947     12944     12945     12948     12945     12948     12949
     12945     12948     12950     12945     12948     12956     12946     12945     12947
     12946     12945     12948     12947     12945     12948     12948     12950     12951
     12948     12956     12957     12948     12956     12958     12948     12956     12959
     12949     12948     12950     12949     12948     12956     12950     12948     12956
     12950     12951     12952     12950     12951     12953     12951     12953     12954
     12951     12953     12955     12951     12953     12965     12952     12951     12953
     12953     12965     12966     12953     12965     12967     12953     12965     12968
     12954     12953     12955     12954     12953     12965     12955     12953     12965
     12956     12959     12960     12957     12956     12958     12957     12956     12959
     12958     12956     12959     12959     12960     12961     12959     12960     12962
     12960     12962     12963     12960     12962     12964     12960     12962     13012
     12961     12960     12962     12962     13012     13013     12962     13012     13014
     12962     13012     13015     12963     12962     12964     12963     12962     13012
     12964     12962     13012     12965     12968     12969     12965     12968     12970
     12965     12968     12971     12966     12965     12967     12966     12965     12968
     12967     12965     12968     12968     12971     12972     12968     12971     12973
     12968     12971     12974     12969     12968     12970     12969     12968     12971
     12970     12968     12971     12971     12974     12975     12971     12974     12976
     12971     12974     12977     12972     12971     12973     12972     12971     12974
     12973     12971     12974     12974     12977     12978     12974     12977     12979
     12974     12977     12980     12975     12974     12976     12975     12974     12977
     12976     12974     12977     12977     12980     12981     12977     12980     12982
     12977     12980     12983     12978     12977     12979     12978     12977     12980
     12979     12977     12980     12980     12983     12984     12980     12983     12985
     12981     12980     12982     12981     12980     12983     12982     12980     12983
     12983     12985     12986     12983     12985     12987     12984     12983     12985
     12985     12987     12988     12985     12987     12989     12985     12987     12990
     12986     12985     12987     12987     12990     12991     12987     12990     12992
     12987     12990     12993     12988     12987     12989     12988     12987     12990
     12989     12987     12990     12990     12993     12994     12990     12993     12995
     12990     12993     12996     12991     12990     12992     12991     12990     12993
     12992     12990     12993     12993     12996     12997     12993     12996     12998
     12993     12996     12999     12994     12993     12995     12994     12993     12996
     12995     12993     12996     12996     12999     13000     12996     12999     13001
     12996     12999     13002     12997     12996     12998     12997     12996     12999
     12998     12996     12999     12999     13002     13003     12999     13002     13004
     12999     13002     13005     13000     12999     13001     13000     12999     13002
     13001     12999     13002     13002     13005     13006     13002     13005     13007
     13002     13005     13008     13003     13002     13004     13003     13002     13005
     13004     13002     13005     13005     13008     13009     13005     13008     13010
     13005     13008     13011     13006     13005     13007     13006     13005     13008
     13007     13005     13008     13009     13008     13010     13009     13008     13011
     13010     13008     13011     13012     13015     13016     13012     13015     13017
     13012     13015     13018     13013     13012     13014     13013     13012     13015
     13014     13012     13015     13015     13018     13019     13015     13018     13020
     13015     13018     13021     13016     13015     13017     13016     13015     13018
     13017     13015     13018     13018     13021     13022     13018     13021     13023
     13018     13021     13024     13019     13018     13020     13019     13018     13021
     13020     13018     13021     13021     13024     13025     13021     13024     13026
     13021     13024     13027     13022     13021     13023     13022     13021     13024
     13023     13021     13024     13024     13027     13028     13024     13027     13029
     13024     13027     13030     13025     13024     13026     13025     13024     13027
     13026     13024     13027     13027     13030     13031     13027     13030     13032
     13028     13027     13029     13028     13027     13030     13029     13027     13030
     13030     13032     13033     13030     13032     13034     13031     13030     13032
     13032     13034     13035     13032     13034     13036     13032     13034     13037
     13033     13032     13034     13034     13037     13038     13034     13037     13039
     13034     13037     13040     13035     13034     13036     13035     13034     13037
     13036     13034     13037     13037     13040     13041     13037     13040     13042
     13037     13040     13043     13038     13037     13039     13038     13037     13040
     13039     13037     13040     13040     13043     13044     13040     13043     13045
     13040     13043     13046     13041     13040     13042     13041     13040     13043
     13042     13040     13043     13043     13046     13047     13043     13046     13048
     13043     13046     13049     13044     13043     13045     13044     13043     13046
     13045     13043     13046     13046     13049     13050     13046     13049     13051
     13046     13049     13052     13047     13046     13048     13047     13046     13049
     13048     13046     13049     13049     13052     13053     13049     13052     13054
     13049     13052     13055     13050     13049     13051     13050     13049     13052
     13051     13049     13052     13052     13055     13056     13052     13055     13057
     13052     13055     13058     13053     13052     13054     13053     13052     13055
     13054     13052     13055     13056     13055     13057     13056     13055     13058
     13057     13055     13058     13059     13060     13061     13059     13060     13062
     13059     13060     13075     13059     13063     13064     13059     13063     13065
     13059     13063     13066     13059     13067     13068     13059     13067     13069
     13059     13067     13070     13059     13071     13072     13059     13071     13073
     13059     13071     13074     13060     13059     13063     13060     13059     13067
     13060     13059     13071     13060     13075     13076     13060     13075     13077
     13060     13075     13081     13061     13060     13062     13061     13060     13075
     13062     13060     13075     13063     13059     13067     13063     13059     13071
     13064     13063     13065     13064     13063     13066     13065     13063     13066
     13067     13059     13071     13068     13067     13069     13068     13067     13070
     13069     13067     13070     13072     13071     13073     13072     13071     13074
     13073     13071     13074     13075     13081     13078     13076     13075     13077
     13076     13075     13081     13077     13075     13081     13078     13082     13083
     13079     13078     13080     13079     13078     13081     13079     13078     13082
     13080     13078     13081     13080     13078     13082     13081     13078     13082
     13082     13083     13084     13082     13083     13085     13082     13083     13086
     13083     13086     13087     13083     13086     13088     13083     13086     13094
     13084     13083     13085     13084     13083     13086     13085     13083     13086
     13086     13088     13089     13086     13094     13095     13086     13094     13096
     13086     13094     13097     13087     13086     13088     13087     13086     13094
     13088     13086     13094     13088     13089     13090     13088     13089     13091
     13089     13091     13092     13089     13091     13093     13089     13091     13103
     13090     13089     13091     13091     13103     13104     13091     13103     13105
     13091     13103     13106     13092     13091     13093     13092     13091     13103
     13093     13091     13103     13094     13097     13098     13095     13094     13096
     13095     13094     13097     13096     13094     13097     13097     13098     13099
     13097     13098     13100     13098     13100     13101     13098     13100     13102
     13098     13100     13150     13099     13098     13100     13100     13150     13151
     13100     13150     13152     13100     13150     13153     13101     13100     13102
     13101     13100     13150     13102     13100     13150     13103     13106     13107
     13103     13106     13108     13103     13106     13109     13104     13103     13105
     13104     13103     13106     13105     13103     13106     13106     13109     13110
     13106     13109     13111     13106     13109     13112     13107     13106     13108
     13107     13106     13109     13108     13106     13109     13109     13112     13113
     13109     13112     13114     13109     13112     13115     13110     13109     13111
     13110     13109     13112     13111     13109     13112     13112     13115     13116
     13112     13115     13117     13112     13115     13118     13113     13112     13114
     13113     13112     13115     13114     13112     13115     13115     13118     13119
     13115     13118     13120     13115     13118     13121     13116     13115     13117
     13116     13115     13118     13117     13115     13118     13118     13121     13122
     13118     13121     13123     13119     13118     13120     13119     13118     13121
     13120     13118     13121     13121     13123     13124     13121     13123     13125
     13122     13121     13123     13123     13125     13126     13123     13125     13127
     13123     13125     13128     13124     13123     13125     13125     13128     13129
     13125     13128     13130     13125     13128     13131     13126     13125     13127
     13126     13125     13128     13127     13125     13128     13128     13131     13132
     13128     13131     13133     13128     13131     13134     13129     13128     13130
     13129     13128     13131     13130     13128     13131     13131     13134     13135
     13131     13134     13136     13131     13134     13137     13132     13131     13133
     13132     13131     13134     13133     13131     13134     13134     13137     13138
     13134     13137     13139     13134     13137     13140     13135     13134     13136
     13135     13134     13137     13136     13134     13137     13137     13140     13141
     13137     13140     13142     13137     13140     13143     13138     13137     13139
     13138     13137     13140     13139     13137     13140     13140     13143     13144
     13140     13143     13145     13140     13143     13146     13141     13140     13142
     13141     13140     13143     13142     13140     13143     13143     13146     13147
     13143     13146     13148     13143     13146     13149     13144     13143     13145
     13144     13143     13146     13145     13143     13146     13147     13146     13148
     13147     13146     13149     13148     13146     13149     13150     13153     13154
     13150     13153     13155     13150     13153     13156     13151     13150     13152
     13151     13150     13153     13152     13150     13153     13153     13156     13157
     13153     13156     13158     13153     13156     13159     13154     13153     13155
     13154     13153     13156     13155     13153     13156     13156     13159     13160
     13156     13159     13161     13156     13159     13162     13157     13156     13158
     13157     13156     13159     13158     13156     13159     13159     13162     13163
     13159     13162     13164     13159     13162     13165     13160     13159     13161
     13160     13159     13162     13161     13159     13162     13162     13165     13166
     13162     13165     13167     13162     13165     13168     13163     13162     13164
     13163     13162     13165     13164     13162     13165     13165     13168     13169
     13165     13168     13170     13166     13165     13167     13166     13165     13168
     13167     13165     13168     13168     13170     13171     13168     13170     13172
     13169     13168     13170     13170     13172     13173     13170     13172     13174
     13170     13172     13175     13171     13170     13172     13172     13175     13176
     13172     13175     13177     13172     13175     13178     13173     13172     13174
     13173     13172     13175     13174     13172     13175     13175     13178     13179
     13175     13178     13180     13175     13178     13181     13176     13175     13177
     13176     13175     13178     13177     13175     13178     13178     13181     13182
     13178     13181     13183     13178     13181     13184     13179     13178     13180
     13179     13178     13181     13180     13178     13181     13181     13184     13185
     13181     13184     13186     13181     13184     13187     13182     13181     13183
     13182     13181     13184     13183     13181     13184     13184     13187     13188
     13184     13187     13189     13184     13187     13190     13185     13184     13186
     13185     13184     13187     13186     13184     13187     13187     13190     13191
     13187     13190     13192     13187     13190     13193     13188     13187     13189
     13188     13187     13190     13189     13187     13190     13190     13193     13194
     13190     13193     13195     13190     13193     13196     13191     13190     13192
     13191     13190     13193     13192     13190     13193     13194     13193     13195
     13194     13193     13196     13195     13193     13196     13197     13198     13199
     13197     13198     13200     13197     13198     13213     13197     13201     13202
     13197     13201     13203     13197     13201     13204     13197     13205     13206
     13197     13205     13207     13197     13205     13208     13197     13209     13210
     13197     13209     13211     13197     13209     13212     13198     13197     13201
     13198     13197     13205     13198     13197     13209     13198     13213     13214
     13198     13213     13215     13198     13213     13219     13199     13198     13200
     13199     13198     13213     13200     13198     13213     13201     13197     13205
     13201     13197     13209     13202     13201     13203     13202     13201     13204
     13203     13201     13204     13205     13197     13209     13206     13205     13207
     13206     13205     13208     13207     13205     13208     13210     13209     13211
     13210     13209     13212     13211     13209     13212     13213     13219     13216
     13214     13213     13215     13214     13213     13219     13215     13213     13219
     13216     13220     13221     13217     13216     13218     13217     13216     13219
     13217     13216     13220     13218     13216     13219     13218     13216     13220
     13219     13216     13220     13220     13221     13222     13220     13221     13223
     13220     13221     13224     13221     13224     13225     13221     13224     13226
     13221     13224     13232     13222     13221     13223     13222     13221     13224
     13223     13221     13224     13224     13226     13227     13224     13232     13233
     13224     13232     13234     13224     13232     13235     13225     13224     13226
     13225     13224     13232     13226     13224     13232     13226     13227     13228
     13226     13227     13229     13227     13229     13230     13227     13229     13231
     13227     13229     13241     13228     13227     13229     13229     13241     13242
     13229     13241     13243     13229     13241     13244     13230     13229     13231
     13230     13229     13241     13231     13229     13241     13232     13235     13236
     13233     13232     13234     13233     13232     13235     13234     13232     13235
     13235     13236     13237     13235     13236     13238     13236     13238     13239
     13236     13238     13240     13236     13238     13288     13237     13236     13238
     13238     13288     13289     13238     13288     13290     13238     13288     13291
     13239     13238     13240     13239     13238     13288     13240     13238     13288
     13241     13244     13245     13241     13244     13246     13241     13244     13247
     13242     13241     13243     13242     13241     13244     13243     13241     13244
     13244     13247     13248     13244     13247     13249     13244     13247     13250
     13245     13244     13246     13245     13244     13247     13246     13244     13247
     13247     13250     13251     13247     13250     13252     13247     13250     13253
     13248     13247     13249     13248     13247     13250     13249     13247     13250
     13250     13253     13254     13250     13253     13255     13250     13253     13256
     13251     13250     13252     13251     13250     13253     13252     13250     13253
     13253     13256     13257     13253     13256     13258     13253     13256     13259
     13254     13253     13255     13254     13253     13256     13255     13253     13256
     13256     13259     13260     13256     13259     13261     13257     13256     13258
     13257     13256     13259     13258     13256     13259     13259     13261     13262
     13259     13261     13263     13260     13259     13261     13261     13263     13264
     13261     13263     13265     13261     13263     13266     13262     13261     13263
     13263     13266     13267     13263     13266     13268     13263     13266     13269
     13264     13263     13265     13264     13263     13266     13265     13263     13266
     13266     13269     13270     13266     13269     13271     13266     13269     13272
     13267     13266     13268     13267     13266     13269     13268     13266     13269
     13269     13272     13273     13269     13272     13274     13269     13272     13275
     13270     13269     13271     13270     13269     13272     13271     13269     13272
     13272     13275     13276     13272     13275     13277     13272     13275     13278
     13273     13272     13274     13273     13272     13275     13274     13272     13275
     13275     13278     13279     13275     13278     13280     13275     13278     13281
     13276     13275     13277     13276     13275     13278     13277     13275     13278
     13278     13281     13282     13278     13281     13283     13278     13281     13284
     13279     13278     13280     13279     13278     13281     13280     13278     13281
     13281     13284     13285     13281     13284     13286     13281     13284     13287
     13282     13281     13283     13282     13281     13284     13283     13281     13284
     13285     13284     13286     13285     13284     13287     13286     13284     13287
     13288     13291     13292     13288     13291     13293     13288     13291     13294
     13289     13288     13290     13289     13288     13291     13290     13288     13291
     13291     13294     13295     13291     13294     13296     13291     13294     13297
     13292     13291     13293     13292     13291     13294     13293     13291     13294
     13294     13297     13298     13294     13297     13299     13294     13297     13300
     13295     13294     13296     13295     13294     13297     13296     13294     13297
     13297     13300     13301     13297     13300     13302     13297     13300     13303
     13298     13297     13299     13298     13297     13300     13299     13297     13300
     13300     13303     13304     13300     13303     13305     13300     13303     13306
     13301     13300     13302     13301     13300     13303     13302     13300     13303
     13303     13306     13307     13303     13306     13308     13304     13303     13305
     13304     13303     13306     13305     13303     13306     13306     13308     13309
     13306     13308     13310     13307     13306     13308     13308     13310     13311
     13308     13310     13312     13308     13310     13313     13309     13308     13310
     13310     13313     13314     13310     13313     13315     13310     13313     13316
     13311     13310     13312     13311     13310     13313     13312     13310     13313
     13313     13316     13317     13313     13316     13318     13313     13316     13319
     13314     13313     13315     13314     13313     13316     13315     13313     13316
     13316     13319     13320     13316     13319     13321     13316     13319     13322
     13317     13316     13318     13317     13316     13319     13318     13316     13319
     13319     13322     13323     13319     13322     13324     13319     13322     13325
     13320     13319     13321     13320     13319     13322     13321     13319     13322
     13322     13325     13326     13322     13325     13327     13322     13325     13328
     13323     13322     13324     13323     13322     13325     13324     13322     13325
     13325     13328     13329     13325     13328     13330     13325     13328     13331
     13326     13325     13327     13326     13325     13328     13327     13325     13328
     13328     13331     13332     13328     13331     13333     13328     13331     13334
     13329     13328     13330     13329     13328     13331     13330     13328     13331
     13332     13331     13333     13332     13331     13334     13333     13331     13334
     13335     13336     13337     13335     13336     13338     13335     13336     13351
     13335     13339     13340     13335     13339     13341     13335     13339     13342
     13335     13343     13344     13335     13343     13345     13335     13343     13346
     13335     13347     13348     13335     13347     13349     13335     13347     13350
     13336     13335     13339     13336     13335     13343     13336     13335     13347
     13336     13351     13352     13336     13351     13353     13336     13351     13357
     13337     13336     13338     13337     13336     13351     13338     13336     13351
     13339     13335     13343     13339     13335     13347     13340     13339     13341
     13340     13339     13342     13341     13339     13342     13343     13335     13347
     13344     13343     13345     13344     13343     13346     13345     13343     13346
     13348     13347     13349     13348     13347     13350     13349     13347     13350
     13351     13357     13354     13352     13351     13353     13352     13351     13357
     13353     13351     13357     13354     13358     13359     13355     13354     13356
     13355     13354     13357     13355     13354     13358     13356     13354     13357
     13356     13354     13358     13357     13354     13358     13358     13359     13360
     13358     13359     13361     13358     13359     13362     13359     13362     13363
     13359     13362     13364     13359     13362     13370     13360     13359     13361
     13360     13359     13362     13361     13359     13362     13362     13364     13365
     13362     13370     13371     13362     13370     13372     13362     13370     13373
     13363     13362     13364     13363     13362     13370     13364     13362     13370
     13364     13365     13366     13364     13365     13367     13365     13367     13368
     13365     13367     13369     13365     13367     13379     13366     13365     13367
     13367     13379     13380     13367     13379     13381     13367     13379     13382
     13368     13367     13369     13368     13367     13379     13369     13367     13379
     13370     13373     13374     13371     13370     13372     13371     13370     13373
     13372     13370     13373     13373     13374     13375     13373     13374     13376
     13374     13376     13377     13374     13376     13378     13374     13376     13426
     13375     13374     13376     13376     13426     13427     13376     13426     13428
     13376     13426     13429     13377     13376     13378     13377     13376     13426
     13378     13376     13426     13379     13382     13383     13379     13382     13384
     13379     13382     13385     13380     13379     13381     13380     13379     13382
     13381     13379     13382     13382     13385     13386     13382     13385     13387
     13382     13385     13388     13383     13382     13384     13383     13382     13385
     13384     13382     13385     13385     13388     13389     13385     13388     13390
     13385     13388     13391     13386     13385     13387     13386     13385     13388
     13387     13385     13388     13388     13391     13392     13388     13391     13393
     13388     13391     13394     13389     13388     13390     13389     13388     13391
     13390     13388     13391     13391     13394     13395     13391     13394     13396
     13391     13394     13397     13392     13391     13393     13392     13391     13394
     13393     13391     13394     13394     13397     13398     13394     13397     13399
     13395     13394     13396     13395     13394     13397     13396     13394     13397
     13397     13399     13400     13397     13399     13401     13398     13397     13399
     13399     13401     13402     13399     13401     13403     13399     13401     13404
     13400     13399     13401     13401     13404     13405     13401     13404     13406
     13401     13404     13407     13402     13401     13403     13402     13401     13404
     13403     13401     13404     13404     13407     13408     13404     13407     13409
     13404     13407     13410     13405     13404     13406     13405     13404     13407
     13406     13404     13407     13407     13410     13411     13407     13410     13412
     13407     13410     13413     13408     13407     13409     13408     13407     13410
     13409     13407     13410     13410     13413     13414     13410     13413     13415
     13410     13413     13416     13411     13410     13412     13411     13410     13413
     13412     13410     13413     13413     13416     13417     13413     13416     13418
     13413     13416     13419     13414     13413     13415     13414     13413     13416
     13415     13413     13416     13416     13419     13420     13416     13419     13421
     13416     13419     13422     13417     13416     13418     13417     13416     13419
     13418     13416     13419     13419     13422     13423     13419     13422     13424
     13419     13422     13425     13420     13419     13421     13420     13419     13422
     13421     13419     13422     13423     13422     13424     13423     13422     13425
     13424     13422     13425     13426     13429     13430     13426     13429     13431
     13426     13429     13432     13427     13426     13428     13427     13426     13429
     13428     13426     13429     13429     13432     13433     13429     13432     13434
     13429     13432     13435     13430     13429     13431     13430     13429     13432
     13431     13429     13432     13432     13435     13436     13432     13435     13437
     13432     13435     13438     13433     13432     13434     13433     13432     13435
     13434     13432     13435     13435     13438     13439     13435     13438     13440
     13435     13438     13441     13436     13435     13437     13436     13435     13438
     13437     13435     13438     13438     13441     13442     13438     13441     13443
     13438     13441     13444     13439     13438     13440     13439     13438     13441
     13440     13438     13441     13441     13444     13445     13441     13444     13446
     13442     13441     13443     13442     13441     13444     13443     13441     13444
     13444     13446     13447     13444     13446     13448     13445     13444     13446
     13446     13448     13449     13446     13448     13450     13446     13448     13451
     13447     13446     13448     13448     13451     13452     13448     13451     13453
     13448     13451     13454     13449     13448     13450     13449     13448     13451
     13450     13448     13451     13451     13454     13455     13451     13454     13456
     13451     13454     13457     13452     13451     13453     13452     13451     13454
     13453     13451     13454     13454     13457     13458     13454     13457     13459
     13454     13457     13460     13455     13454     13456     13455     13454     13457
     13456     13454     13457     13457     13460     13461     13457     13460     13462
     13457     13460     13463     13458     13457     13459     13458     13457     13460
     13459     13457     13460     13460     13463     13464     13460     13463     13465
     13460     13463     13466     13461     13460     13462     13461     13460     13463
     13462     13460     13463     13463     13466     13467     13463     13466     13468
     13463     13466     13469     13464     13463     13465     13464     13463     13466
     13465     13463     13466     13466     13469     13470     13466     13469     13471
     13466     13469     13472     13467     13466     13468     13467     13466     13469
     13468     13466     13469     13470     13469     13471     13470     13469     13472
     13471     13469     13472     13473     13474     13475     13473     13474     13476
     13473     13474     13489     13473     13477     13478     13473     13477     13479
     13473     13477     13480     13473     13481     13482     13473     13481     13483
     13473     13481     13484     13473     13485     13486     13473     13485     13487
     13473     13485     13488     13474     13473     13477     13474     13473     13481
     13474     13473     13485     13474     13489     13490     13474     13489     13491
     13474     13489     13495     13475     13474     13476     13475     13474     13489
     13476     13474     13489     13477     13473     13481     13477     13473     13485
     13478     13477     13479     13478     13477     13480     13479     13477     13480
     13481     13473     13485     13482     13481     13483     13482     13481     13484
     13483     13481     13484     13486     13485     13487     13486     13485     13488
     13487     13485     13488     13489     13495     13492     13490     13489     13491
     13490     13489     13495     13491     13489     13495     13492     13496     13497
     13493     13492     13494     13493     13492     13495     13493     13492     13496
     13494     13492     13495     13494     13492     13496     13495     13492     13496
     13496     13497     13498     13496     13497     13499     13496     13497     13500
     13497     13500     13501     13497     13500     13502     13497     13500     13508
     13498     13497     13499     13498     13497     13500     13499     13497     13500
     13500     13502     13503     13500     13508     13509     13500     13508     13510
     13500     13508     13511     13501     13500     13502     13501     13500     13508
     13502     13500     13508     13502     13503     13504     13502     13503     13505
     13503     13505     13506     13503     13505     13507     13503     13505     13517
     13504     13503     13505     13505     13517     13518     13505     13517     13519
     13505     13517     13520     13506     13505     13507     13506     13505     13517
     13507     13505     13517     13508     13511     13512     13509     13508     13510
     13509     13508     13511     13510     13508     13511     13511     13512     13513
     13511     13512     13514     13512     13514     13515     13512     13514     13516
     13512     13514     13564     13513     13512     13514     13514     13564     13565
     13514     13564     13566     13514     13564     13567     13515     13514     13516
     13515     13514     13564     13516     13514     13564     13517     13520     13521
     13517     13520     13522     13517     13520     13523     13518     13517     13519
     13518     13517     13520     13519     13517     13520     13520     13523     13524
     13520     13523     13525     13520     13523     13526     13521     13520     13522
     13521     13520     13523     13522     13520     13523     13523     13526     13527
     13523     13526     13528     13523     13526     13529     13524     13523     13525
     13524     13523     13526     13525     13523     13526     13526     13529     13530
     13526     13529     13531     13526     13529     13532     13527     13526     13528
     13527     13526     13529     13528     13526     13529     13529     13532     13533
     13529     13532     13534     13529     13532     13535     13530     13529     13531
     13530     13529     13532     13531     13529     13532     13532     13535     13536
     13532     13535     13537     13533     13532     13534     13533     13532     13535
     13534     13532     13535     13535     13537     13538     13535     13537     13539
     13536     13535     13537     13537     13539     13540     13537     13539     13541
     13537     13539     13542     13538     13537     13539     13539     13542     13543
     13539     13542     13544     13539     13542     13545     13540     13539     13541
     13540     13539     13542     13541     13539     13542     13542     13545     13546
     13542     13545     13547     13542     13545     13548     13543     13542     13544
     13543     13542     13545     13544     13542     13545     13545     13548     13549
     13545     13548     13550     13545     13548     13551     13546     13545     13547
     13546     13545     13548     13547     13545     13548     13548     13551     13552
     13548     13551     13553     13548     13551     13554     13549     13548     13550
     13549     13548     13551     13550     13548     13551     13551     13554     13555
     13551     13554     13556     13551     13554     13557     13552     13551     13553
     13552     13551     13554     13553     13551     13554     13554     13557     13558
     13554     13557     13559     13554     13557     13560     13555     13554     13556
     13555     13554     13557     13556     13554     13557     13557     13560     13561
     13557     13560     13562     13557     13560     13563     13558     13557     13559
     13558     13557     13560     13559     13557     13560     13561     13560     13562
     13561     13560     13563     13562     13560     13563     13564     13567     13568
     13564     13567     13569     13564     13567     13570     13565     13564     13566
     13565     13564     13567     13566     13564     13567     13567     13570     13571
     13567     13570     13572     13567     13570     13573     13568     13567     13569
     13568     13567     13570     13569     13567     13570     13570     13573     13574
     13570     13573     13575     13570     13573     13576     13571     13570     13572
     13571     13570     13573     13572     13570     13573     13573     13576     13577
     13573     13576     13578     13573     13576     13579     13574     13573     13575
     13574     13573     13576     13575     13573     13576     13576     13579     13580
     13576     13579     13581     13576     13579     13582     13577     13576     13578
     13577     13576     13579     13578     13576     13579     13579     13582     13583
     13579     13582     13584     13580     13579     13581     13580     13579     13582
     13581     13579     13582     13582     13584     13585     13582     13584     13586
     13583     13582     13584     13584     13586     13587     13584     13586     13588
     13584     13586     13589     13585     13584     13586     13586     13589     13590
     13586     13589     13591     13586     13589     13592     13587     13586     13588
     13587     13586     13589     13588     13586     13589     13589     13592     13593
     13589     13592     13594     13589     13592     13595     13590     13589     13591
     13590     13589     13592     13591     13589     13592     13592     13595     13596
     13592     13595     13597     13592     13595     13598     13593     13592     13594
     13593     13592     13595     13594     13592     13595     13595     13598     13599
     13595     13598     13600     13595     13598     13601     13596     13595     13597
     13596     13595     13598     13597     13595     13598     13598     13601     13602
     13598     13601     13603     13598     13601     13604     13599     13598     13600
     13599     13598     13601     13600     13598     13601     13601     13604     13605
     13601     13604     13606     13601     13604     13607     13602     13601     13603
     13602     13601     13604     13603     13601     13604     13604     13607     13608
     13604     13607     13609     13604     13607     13610     13605     13604     13606
     13605     13604     13607     13606     13604     13607     13608     13607     13609
     13608     13607     13610     13609     13607     13610     13611     13612     13613
     13611     13612     13614     13611     13612     13627     13611     13615     13616
     13611     13615     13617     13611     13615     13618     13611     13619     13620
     13611     13619     13621     13611     13619     13622     13611     13623     13624
     13611     13623     13625     13611     13623     13626     13612     13611     13615
     13612     13611     13619     13612     13611     13623     13612     13627     13628
     13612     13627     13629     13612     13627     13633     13613     13612     13614
     13613     13612     13627     13614     13612     13627     13615     13611     13619
     13615     13611     13623     13616     13615     13617     13616     13615     13618
     13617     13615     13618     13619     13611     13623     13620     13619     13621
     13620     13619     13622     13621     13619     13622     13624     13623     13625
     13624     13623     13626     13625     13623     13626     13627     13633     13630
     13628     13627     13629     13628     13627     13633     13629     13627     13633
     13630     13634     13635     13631     13630     13632     13631     13630     13633
     13631     13630     13634     13632     13630     13633     13632     13630     13634
     13633     13630     13634     13634     13635     13636     13634     13635     13637
     13634     13635     13638     13635     13638     13639     13635     13638     13640
     13635     13638     13646     13636     13635     13637     13636     13635     13638
     13637     13635     13638     13638     13640     13641     13638     13646     13647
     13638     13646     13648     13638     13646     13649     13639     13638     13640
     13639     13638     13646     13640     13638     13646     13640     13641     13642
     13640     13641     13643     13641     13643     13644     13641     13643     13645
     13641     13643     13655     13642     13641     13643     13643     13655     13656
     13643     13655     13657     13643     13655     13658     13644     13643     13645
     13644     13643     13655     13645     13643     13655     13646     13649     13650
     13647     13646     13648     13647     13646     13649     13648     13646     13649
     13649     13650     13651     13649     13650     13652     13650     13652     13653
     13650     13652     13654     13650     13652     13702     13651     13650     13652
     13652     13702     13703     13652     13702     13704     13652     13702     13705
     13653     13652     13654     13653     13652     13702     13654     13652     13702
     13655     13658     13659     13655     13658     13660     13655     13658     13661
     13656     13655     13657     13656     13655     13658     13657     13655     13658
     13658     13661     13662     13658     13661     13663     13658     13661     13664
     13659     13658     13660     13659     13658     13661     13660     13658     13661
     13661     13664     13665     13661     13664     13666     13661     13664     13667
     13662     13661     13663     13662     13661     13664     13663     13661     13664
     13664     13667     13668     13664     13667     13669     13664     13667     13670
     13665     13664     13666     13665     13664     13667     13666     13664     13667
     13667     13670     13671     13667     13670     13672     13667     13670     13673
     13668     13667     13669     13668     13667     13670     13669     13667     13670
     13670     13673     13674     13670     13673     13675     13671     13670     13672
     13671     13670     13673     13672     13670     13673     13673     13675     13676
     13673     13675     13677     13674     13673     13675     13675     13677     13678
     13675     13677     13679     13675     13677     13680     13676     13675     13677
     13677     13680     13681     13677     13680     13682     13677     13680     13683
     13678     13677     13679     13678     13677     13680     13679     13677     13680
     13680     13683     13684     13680     13683     13685     13680     13683     13686
     13681     13680     13682     13681     13680     13683     13682     13680     13683
     13683     13686     13687     13683     13686     13688     13683     13686     13689
     13684     13683     13685     13684     13683     13686     13685     13683     13686
     13686     13689     13690     13686     13689     13691     13686     13689     13692
     13687     13686     13688     13687     13686     13689     13688     13686     13689
     13689     13692     13693     13689     13692     13694     13689     13692     13695
     13690     13689     13691     13690     13689     13692     13691     13689     13692
     13692     13695     13696     13692     13695     13697     13692     13695     13698
     13693     13692     13694     13693     13692     13695     13694     13692     13695
     13695     13698     13699     13695     13698     13700     13695     13698     13701
     13696     13695     13697     13696     13695     13698     13697     13695     13698
     13699     13698     13700     13699     13698     13701     13700     13698     13701
     13702     13705     13706     13702     13705     13707     13702     13705     13708
     13703     13702     13704     13703     13702     13705     13704     13702     13705
     13705     13708     13709     13705     13708     13710     13705     13708     13711
     13706     13705     13707     13706     13705     13708     13707     13705     13708
     13708     13711     13712     13708     13711     13713     13708     13711     13714
     13709     13708     13710     13709     13708     13711     13710     13708     13711
     13711     13714     13715     13711     13714     13716     13711     13714     13717
     13712     13711     13713     13712     13711     13714     13713     13711     13714
     13714     13717     13718     13714     13717     13719     13714     13717     13720
     13715     13714     13716     13715     13714     13717     13716     13714     13717
     13717     13720     13721     13717     13720     13722     13718     13717     13719
     13718     13717     13720     13719     13717     13720     13720     13722     13723
     13720     13722     13724     13721     13720     13722     13722     13724     13725
     13722     13724     13726     13722     13724     13727     13723     13722     13724
     13724     13727     13728     13724     13727     13729     13724     13727     13730
     13725     13724     13726     13725     13724     13727     13726     13724     13727
     13727     13730     13731     13727     13730     13732     13727     13730     13733
     13728     13727     13729     13728     13727     13730     13729     13727     13730
     13730     13733     13734     13730     13733     13735     13730     13733     13736
     13731     13730     13732     13731     13730     13733     13732     13730     13733
     13733     13736     13737     13733     13736     13738     13733     13736     13739
     13734     13733     13735     13734     13733     13736     13735     13733     13736
     13736     13739     13740     13736     13739     13741     13736     13739     13742
     13737     13736     13738     13737     13736     13739     13738     13736     13739
     13739     13742     13743     13739     13742     13744     13739     13742     13745
     13740     13739     13741     13740     13739     13742     13741     13739     13742
     13742     13745     13746     13742     13745     13747     13742     13745     13748
     13743     13742     13744     13743     13742     13745     13744     13742     13745
     13746     13745     13747     13746     13745     13748     13747     13745     13748
     13749     13750     13751     13749     13750     13752     13749     13750     13765
     13749     13753     13754     13749     13753     13755     13749     13753     13756
     13749     13757     13758     13749     13757     13759     13749     13757     13760
     13749     13761     13762     13749     13761     13763     13749     13761     13764
     13750     13749     13753     13750     13749     13757     13750     13749     13761
     13750     13765     13766     13750     13765     13767     13750     13765     13771
     13751     13750     13752     13751     13750     13765     13752     13750     13765
     13753     13749     13757     13753     13749     13761     13754     13753     13755
     13754     13753     13756     13755     13753     13756     13757     13749     13761
     13758     13757     13759     13758     13757     13760     13759     13757     13760
     13762     13761     13763     13762     13761     13764     13763     13761     13764
     13765     13771     13768     13766     13765     13767     13766     13765     13771
     13767     13765     13771     13768     13772     13773     13769     13768     13770
     13769     13768     13771     13769     13768     13772     13770     13768     13771
     13770     13768     13772     13771     13768     13772     13772     13773     13774
     13772     13773     13775     13772     13773     13776     13773     13776     13777
     13773     13776     13778     13773     13776     13784     13774     13773     13775
     13774     13773     13776     13775     13773     13776     13776     13778     13779
     13776     13784     13785     13776     13784     13786     13776     13784     13787
     13777     13776     13778     13777     13776     13784     13778     13776     13784
     13778     13779     13780     13778     13779     13781     13779     13781     13782
     13779     13781     13783     13779     13781     13793     13780     13779     13781
     13781     13793     13794     13781     13793     13795     13781     13793     13796
     13782     13781     13783     13782     13781     13793     13783     13781     13793
     13784     13787     13788     13785     13784     13786     13785     13784     13787
     13786     13784     13787     13787     13788     13789     13787     13788     13790
     13788     13790     13791     13788     13790     13792     13788     13790     13840
     13789     13788     13790     13790     13840     13841     13790     13840     13842
     13790     13840     13843     13791     13790     13792     13791     13790     13840
     13792     13790     13840     13793     13796     13797     13793     13796     13798
     13793     13796     13799     13794     13793     13795     13794     13793     13796
     13795     13793     13796     13796     13799     13800     13796     13799     13801
     13796     13799     13802     13797     13796     13798     13797     13796     13799
     13798     13796     13799     13799     13802     13803     13799     13802     13804
     13799     13802     13805     13800     13799     13801     13800     13799     13802
     13801     13799     13802     13802     13805     13806     13802     13805     13807
     13802     13805     13808     13803     13802     13804     13803     13802     13805
     13804     13802     13805     13805     13808     13809     13805     13808     13810
     13805     13808     13811     13806     13805     13807     13806     13805     13808
     13807     13805     13808     13808     13811     13812     13808     13811     13813
     13809     13808     13810     13809     13808     13811     13810     13808     13811
     13811     13813     13814     13811     13813     13815     13812     13811     13813
     13813     13815     13816     13813     13815     13817     13813     13815     13818
     13814     13813     13815     13815     13818     13819     13815     13818     13820
     13815     13818     13821     13816     13815     13817     13816     13815     13818
     13817     13815     13818     13818     13821     13822     13818     13821     13823
     13818     13821     13824     13819     13818     13820     13819     13818     13821
     13820     13818     13821     13821     13824     13825     13821     13824     13826
     13821     13824     13827     13822     13821     13823     13822     13821     13824
     13823     13821     13824     13824     13827     13828     13824     13827     13829
     13824     13827     13830     13825     13824     13826     13825     13824     13827
     13826     13824     13827     13827     13830     13831     13827     13830     13832
     13827     13830     13833     13828     13827     13829     13828     13827     13830
     13829     13827     13830     13830     13833     13834     13830     13833     13835
     13830     13833     13836     13831     13830     13832     13831     13830     13833
     13832     13830     13833     13833     13836     13837     13833     13836     13838
     13833     13836     13839     13834     13833     13835     13834     13833     13836
     13835     13833     13836     13837     13836     13838     13837     13836     13839
     13838     13836     13839     13840     13843     13844     13840     13843     13845
     13840     13843     13846     13841     13840     13842     13841     13840     13843
     13842     13840     13843     13843     13846     13847     13843     13846     13848
     13843     13846     13849     13844     13843     13845     13844     13843     13846
     13845     13843     13846     13846     13849     13850     13846     13849     13851
     13846     13849     13852     13847     13846     13848     13847     13846     13849
     13848     13846     13849     13849     13852     13853     13849     13852     13854
     13849     13852     13855     13850     13849     13851     13850     13849     13852
     13851     13849     13852     13852     13855     13856     13852     13855     13857
     13852     13855     13858     13853     13852     13854     13853     13852     13855
     13854     13852     13855     13855     13858     13859     13855     13858     13860
     13856     13855     13857     13856     13855     13858     13857     13855     13858
     13858     13860     13861     13858     13860     13862     13859     13858     13860
     13860     13862     13863     13860     13862     13864     13860     13862     13865
     13861     13860     13862     13862     13865     13866     13862     13865     13867
     13862     13865     13868     13863     13862     13864     13863     13862     13865
     13864     13862     13865     13865     13868     13869     13865     13868     13870
     13865     13868     13871     13866     13865     13867     13866     13865     13868
     13867     13865     13868     13868     13871     13872     13868     13871     13873
     13868     13871     13874     13869     13868     13870     13869     13868     13871
     13870     13868     13871     13871     13874     13875     13871     13874     13876
     13871     13874     13877     13872     13871     13873     13872     13871     13874
     13873     13871     13874     13874     13877     13878     13874     13877     13879
     13874     13877     13880     13875     13874     13876     13875     13874     13877
     13876     13874     13877     13877     13880     13881     13877     13880     13882
     13877     13880     13883     13878     13877     13879     13878     13877     13880
     13879     13877     13880     13880     13883     13884     13880     13883     13885
     13880     13883     13886     13881     13880     13882     13881     13880     13883
     13882     13880     13883     13884     13883     13885     13884     13883     13886
     13885     13883     13886     13887     13888     13889     13887     13888     13890
     13887     13888     13903     13887     13891     13892     13887     13891     13893
     13887     13891     13894     13887     13895     13896     13887     13895     13897
     13887     13895     13898     13887     13899     13900     13887     13899     13901
     13887     13899     13902     13888     13887     13891     13888     13887     13895
     13888     13887     13899     13888     13903     13904     13888     13903     13905
     13888     13903     13909     13889     13888     13890     13889     13888     13903
     13890     13888     13903     13891     13887     13895     13891     13887     13899
     13892     13891     13893     13892     13891     13894     13893     13891     13894
     13895     13887     13899     13896     13895     13897     13896     13895     13898
     13897     13895     13898     13900     13899     13901     13900     13899     13902
     13901     13899     13902     13903     13909     13906     13904     13903     13905
     13904     13903     13909     13905     13903     13909     13906     13910     13911
     13907     13906     13908     13907     13906     13909     13907     13906     13910
     13908     13906     13909     13908     13906     13910     13909     13906     13910
     13910     13911     13912     13910     13911     13913     13910     13911     13914
     13911     13914     13915     13911     13914     13916     13911     13914     13922
     13912     13911     13913     13912     13911     13914     13913     13911     13914
     13914     13916     13917     13914     13922     13923     13914     13922     13924
     13914     13922     13925     13915     13914     13916     13915     13914     13922
     13916     13914     13922     13916     13917     13918     13916     13917     13919
     13917     13919     13920     13917     13919     13921     13917     13919     13931
     13918     13917     13919     13919     13931     13932     13919     13931     13933
     13919     13931     13934     13920     13919     13921     13920     13919     13931
     13921     13919     13931     13922     13925     13926     13923     13922     13924
     13923     13922     13925     13924     13922     13925     13925     13926     13927
     13925     13926     13928     13926     13928     13929     13926     13928     13930
     13926     13928     13978     13927     13926     13928     13928     13978     13979
     13928     13978     13980     13928     13978     13981     13929     13928     13930
     13929     13928     13978     13930     13928     13978     13931     13934     13935
     13931     13934     13936     13931     13934     13937     13932     13931     13933
     13932     13931     13934     13933     13931     13934     13934     13937     13938
     13934     13937     13939     13934     13937     13940     13935     13934     13936
     13935     13934     13937     13936     13934     13937     13937     13940     13941
     13937     13940     13942     13937     13940     13943     13938     13937     13939
     13938     13937     13940     13939     13937     13940     13940     13943     13944
     13940     13943     13945     13940     13943     13946     13941     13940     13942
     13941     13940     13943     13942     13940     13943     13943     13946     13947
     13943     13946     13948     13943     13946     13949     13944     13943     13945
     13944     13943     13946     13945     13943     13946     13946     13949     13950
     13946     13949     13951     13947     13946     13948     13947     13946     13949
     13948     13946     13949     13949     13951     13952     13949     13951     13953
     13950     13949     13951     13951     13953     13954     13951     13953     13955
     13951     13953     13956     13952     13951     13953     13953     13956     13957
     13953     13956     13958     13953     13956     13959     13954     13953     13955
     13954     13953     13956     13955     13953     13956     13956     13959     13960
     13956     13959     13961     13956     13959     13962     13957     13956     13958
     13957     13956     13959     13958     13956     13959     13959     13962     13963
     13959     13962     13964     13959     13962     13965     13960     13959     13961
     13960     13959     13962     13961     13959     13962     13962     13965     13966
     13962     13965     13967     13962     13965     13968     13963     13962     13964
     13963     13962     13965     13964     13962     13965     13965     13968     13969
     13965     13968     13970     13965     13968     13971     13966     13965     13967
     13966     13965     13968     13967     13965     13968     13968     13971     13972
     13968     13971     13973     13968     13971     13974     13969     13968     13970
     13969     13968     13971     13970     13968     13971     13971     13974     13975
     13971     13974     13976     13971     13974     13977     13972     13971     13973
     13972     13971     13974     13973     13971     13974     13975     13974     13976
     13975     13974     13977     13976     13974     13977     13978     13981     13982
     13978     13981     13983     13978     13981     13984     13979     13978     13980
     13979     13978     13981     13980     13978     13981     13981     13984     13985
     13981     13984     13986     13981     13984     13987     13982     13981     13983
     13982     13981     13984     13983     13981     13984     13984     13987     13988
     13984     13987     13989     13984     13987     13990     13985     13984     13986
     13985     13984     13987     13986     13984     13987     13987     13990     13991
     13987     13990     13992     13987     13990     13993     13988     13987     13989
     13988     13987     13990     13989     13987     13990     13990     13993     13994
     13990     13993     13995     13990     13993     13996     13991     13990     13992
     13991     13990     13993     13992     13990     13993     13993     13996     13997
     13993     13996     13998     13994     13993     13995     13994     13993     13996
     13995     13993     13996     13996     13998     13999     13996     13998     14000
     13997     13996     13998     13998     14000     14001     13998     14000     14002
     13998     14000     14003     13999     13998     14000     14000     14003     14004
     14000     14003     14005     14000     14003     14006     14001     14000     14002
     14001     14000     14003     14002     14000     14003     14003     14006     14007
     14003     14006     14008     14003     14006     14009     14004     14003     14005
     14004     14003     14006     14005     14003     14006     14006     14009     14010
     14006     14009     14011     14006     14009     14012     14007     14006     14008
     14007     14006     14009     14008     14006     14009     14009     14012     14013
     14009     14012     14014     14009     14012     14015     14010     14009     14011
     14010     14009     14012     14011     14009     14012     14012     14015     14016
     14012     14015     14017     14012     14015     14018     14013     14012     14014
     14013     14012     14015     14014     14012     14015     14015     14018     14019
     14015     14018     14020     14015     14018     14021     14016     14015     14017
     14016     14015     14018     14017     14015     14018     14018     14021     14022
     14018     14021     14023     14018     14021     14024     14019     14018     14020
     14019     14018     14021     14020     14018     14021     14022     14021     14023
     14022     14021     14024     14023     14021     14024     14025     14026     14027
     14025     14026     14028     14025     14026     14041     14025     14029     14030
     14025     14029     14031     14025     14029     14032     14025     14033     14034
     14025     14033     14035     14025     14033     14036     14025     14037     14038
     14025     14037     14039     14025     14037     14040     14026     14025     14029
     14026     14025     14033     14026     14025     14037     14026     14041     14042
     14026     14041     14043     14026     14041     14047     14027     14026     14028
     14027     14026     14041     14028     14026     14041     14029     14025     14033
     14029     14025     14037     14030     14029     14031     14030     14029     14032
     14031     14029     14032     14033     14025     14037     14034     14033     14035
     14034     14033     14036     14035     14033     14036     14038     14037     14039
     14038     14037     14040     14039     14037     14040     14041     14047     14044
     14042     14041     14043     14042     14041     14047     14043     14041     14047
     14044     14048     14049     14045     14044     14046     14045     14044     14047
     14045     14044     14048     14046     14044     14047     14046     14044     14048
     14047     14044     14048     14048     14049     14050     14048     14049     14051
     14048     14049     14052     14049     14052     14053     14049     14052     14054
     14049     14052     14060     14050     14049     14051     14050     14049     14052
     14051     14049     14052     14052     14054     14055     14052     14060     14061
     14052     14060     14062     14052     14060     14063     14053     14052     14054
     14053     14052     14060     14054     14052     14060     14054     14055     14056
     14054     14055     14057     14055     14057     14058     14055     14057     14059
     14055     14057     14069     14056     14055     14057     14057     14069     14070
     14057     14069     14071     14057     14069     14072     14058     14057     14059
     14058     14057     14069     14059     14057     14069     14060     14063     14064
     14061     14060     14062     14061     14060     14063     14062     14060     14063
     14063     14064     14065     14063     14064     14066     14064     14066     14067
     14064     14066     14068     14064     14066     14116     14065     14064     14066
     14066     14116     14117     14066     14116     14118     14066     14116     14119
     14067     14066     14068     14067     14066     14116     14068     14066     14116
     14069     14072     14073     14069     14072     14074     14069     14072     14075
     14070     14069     14071     14070     14069     14072     14071     14069     14072
     14072     14075     14076     14072     14075     14077     14072     14075     14078
     14073     14072     14074     14073     14072     14075     14074     14072     14075
     14075     14078     14079     14075     14078     14080     14075     14078     14081
     14076     14075     14077     14076     14075     14078     14077     14075     14078
     14078     14081     14082     14078     14081     14083     14078     14081     14084
     14079     14078     14080     14079     14078     14081     14080     14078     14081
     14081     14084     14085     14081     14084     14086     14081     14084     14087
     14082     14081     14083     14082     14081     14084     14083     14081     14084
     14084     14087     14088     14084     14087     14089     14085     14084     14086
     14085     14084     14087     14086     14084     14087     14087     14089     14090
     14087     14089     14091     14088     14087     14089     14089     14091     14092
     14089     14091     14093     14089     14091     14094     14090     14089     14091
     14091     14094     14095     14091     14094     14096     14091     14094     14097
     14092     14091     14093     14092     14091     14094     14093     14091     14094
     14094     14097     14098     14094     14097     14099     14094     14097     14100
     14095     14094     14096     14095     14094     14097     14096     14094     14097
     14097     14100     14101     14097     14100     14102     14097     14100     14103
     14098     14097     14099     14098     14097     14100     14099     14097     14100
     14100     14103     14104     14100     14103     14105     14100     14103     14106
     14101     14100     14102     14101     14100     14103     14102     14100     14103
     14103     14106     14107     14103     14106     14108     14103     14106     14109
     14104     14103     14105     14104     14103     14106     14105     14103     14106
     14106     14109     14110     14106     14109     14111     14106     14109     14112
     14107     14106     14108     14107     14106     14109     14108     14106     14109
     14109     14112     14113     14109     14112     14114     14109     14112     14115
     14110     14109     14111     14110     14109     14112     14111     14109     14112
     14113     14112     14114     14113     14112     14115     14114     14112     14115
     14116     14119     14120     14116     14119     14121     14116     14119     14122
     14117     14116     14118     14117     14116     14119     14118     14116     14119
     14119     14122     14123     14119     14122     14124     14119     14122     14125
     14120     14119     14121     14120     14119     14122     14121     14119     14122
     14122     14125     14126     14122     14125     14127     14122     14125     14128
     14123     14122     14124     14123     14122     14125     14124     14122     14125
     14125     14128     14129     14125     14128     14130     14125     14128     14131
     14126     14125     14127     14126     14125     14128     14127     14125     14128
     14128     14131     14132     14128     14131     14133     14128     14131     14134
     14129     14128     14130     14129     14128     14131     14130     14128     14131
     14131     14134     14135     14131     14134     14136     14132     14131     14133
     14132     14131     14134     14133     14131     14134     14134     14136     14137
     14134     14136     14138     14135     14134     14136     14136     14138     14139
     14136     14138     14140     14136     14138     14141     14137     14136     14138
     14138     14141     14142     14138     14141     14143     14138     14141     14144
     14139     14138     14140     14139     14138     14141     14140     14138     14141
     14141     14144     14145     14141     14144     14146     14141     14144     14147
     14142     14141     14143     14142     14141     14144     14143     14141     14144
     14144     14147     14148     14144     14147     14149     14144     14147     14150
     14145     14144     14146     14145     14144     14147     14146     14144     14147
     14147     14150     14151     14147     14150     14152     14147     14150     14153
     14148     14147     14149     14148     14147     14150     14149     14147     14150
     14150     14153     14154     14150     14153     14155     14150     14153     14156
     14151     14150     14152     14151     14150     14153     14152     14150     14153
     14153     14156     14157     14153     14156     14158     14153     14156     14159
     14154     14153     14155     14154     14153     14156     14155     14153     14156
     14156     14159     14160     14156     14159     14161     14156     14159     14162
     14157     14156     14158     14157     14156     14159     14158     14156     14159
     14160     14159     14161     14160     14159     14162     14161     14159     14162
     14163     14164     14165     14163     14164     14166     14163     14164     14179
     14163     14167     14168     14163     14167     14169     14163     14167     14170
     14163     14171     14172     14163     14171     14173     14163     14171     14174
     14163     14175     14176     14163     14175     14177     14163     14175     14178
     14164     14163     14167     14164     14163     14171     14164     14163     14175
     14164     14179     14180     14164     14179     14181     14164     14179     14185
     14165     14164     14166     14165     14164     14179     14166     14164     14179
     14167     14163     14171     14167     14163     14175     14168     14167     14169
     14168     14167     14170     14169     14167     14170     14171     14163     14175
     14172     14171     14173     14172     14171     14174     14173     14171     14174
     14176     14175     14177     14176     14175     14178     14177     14175     14178
     14179     14185     14182     14180     14179     14181     14180     14179     14185
     14181     14179     14185     14182     14186     14187     14183     14182     14184
     14183     14182     14185     14183     14182     14186     14184     14182     14185
     14184     14182     14186     14185     14182     14186     14186     14187     14188
     14186     14187     14189     14186     14187     14190     14187     14190     14191
     14187     14190     14192     14187     14190     14198     14188     14187     14189
     14188     14187     14190     14189     14187     14190     14190     14192     14193
     14190     14198     14199     14190     14198     14200     14190     14198     14201
     14191     14190     14192     14191     14190     14198     14192     14190     14198
     14192     14193     14194     14192     14193     14195     14193     14195     14196
     14193     14195     14197     14193     14195     14207     14194     14193     14195
     14195     14207     14208     14195     14207     14209     14195     14207     14210
     14196     14195     14197     14196     14195     14207     14197     14195     14207
     14198     14201     14202     14199     14198     14200     14199     14198     14201
     14200     14198     14201     14201     14202     14203     14201     14202     14204
     14202     14204     14205     14202     14204     14206     14202     14204     14254
     14203     14202     14204     14204     14254     14255     14204     14254     14256
     14204     14254     14257     14205     14204     14206     14205     14204     14254
     14206     14204     14254     14207     14210     14211     14207     14210     14212
     14207     14210     14213     14208     14207     14209     14208     14207     14210
     14209     14207     14210     14210     14213     14214     14210     14213     14215
     14210     14213     14216     14211     14210     14212     14211     14210     14213
     14212     14210     14213     14213     14216     14217     14213     14216     14218
     14213     14216     14219     14214     14213     14215     14214     14213     14216
     14215     14213     14216     14216     14219     14220     14216     14219     14221
     14216     14219     14222     14217     14216     14218     14217     14216     14219
     14218     14216     14219     14219     14222     14223     14219     14222     14224
     14219     14222     14225     14220     14219     14221     14220     14219     14222
     14221     14219     14222     14222     14225     14226     14222     14225     14227
     14223     14222     14224     14223     14222     14225     14224     14222     14225
     14225     14227     14228     14225     14227     14229     14226     14225     14227
     14227     14229     14230     14227     14229     14231     14227     14229     14232
     14228     14227     14229     14229     14232     14233     14229     14232     14234
     14229     14232     14235     14230     14229     14231     14230     14229     14232
     14231     14229     14232     14232     14235     14236     14232     14235     14237
     14232     14235     14238     14233     14232     14234     14233     14232     14235
     14234     14232     14235     14235     14238     14239     14235     14238     14240
     14235     14238     14241     14236     14235     14237     14236     14235     14238
     14237     14235     14238     14238     14241     14242     14238     14241     14243
     14238     14241     14244     14239     14238     14240     14239     14238     14241
     14240     14238     14241     14241     14244     14245     14241     14244     14246
     14241     14244     14247     14242     14241     14243     14242     14241     14244
     14243     14241     14244     14244     14247     14248     14244     14247     14249
     14244     14247     14250     14245     14244     14246     14245     14244     14247
     14246     14244     14247     14247     14250     14251     14247     14250     14252
     14247     14250     14253     14248     14247     14249     14248     14247     14250
     14249     14247     14250     14251     14250     14252     14251     14250     14253
     14252     14250     14253     14254     14257     14258     14254     14257     14259
     14254     14257     14260     14255     14254     14256     14255     14254     14257
     14256     14254     14257     14257     14260     14261     14257     14260     14262
     14257     14260     14263     14258     14257     14259     14258     14257     14260
     14259     14257     14260     14260     14263     14264     14260     14263     14265
     14260     14263     14266     14261     14260     14262     14261     14260     14263
     14262     14260     14263     14263     14266     14267     14263     14266     14268
     14263     14266     14269     14264     14263     14265     14264     14263     14266
     14265     14263     14266     14266     14269     14270     14266     14269     14271
     14266     14269     14272     14267     14266     14268     14267     14266     14269
     14268     14266     14269     14269     14272     14273     14269     14272     14274
     14270     14269     14271     14270     14269     14272     14271     14269     14272
     14272     14274     14275     14272     14274     14276     14273     14272     14274
     14274     14276     14277     14274     14276     14278     14274     14276     14279
     14275     14274     14276     14276     14279     14280     14276     14279     14281
     14276     14279     14282     14277     14276     14278     14277     14276     14279
     14278     14276     14279     14279     14282     14283     14279     14282     14284
     14279     14282     14285     14280     14279     14281     14280     14279     14282
     14281     14279     14282     14282     14285     14286     14282     14285     14287
     14282     14285     14288     14283     14282     14284     14283     14282     14285
     14284     14282     14285     14285     14288     14289     14285     14288     14290
     14285     14288     14291     14286     14285     14287     14286     14285     14288
     14287     14285     14288     14288     14291     14292     14288     14291     14293
     14288     14291     14294     14289     14288     14290     14289     14288     14291
     14290     14288     14291     14291     14294     14295     14291     14294     14296
     14291     14294     14297     14292     14291     14293     14292     14291     14294
     14293     14291     14294     14294     14297     14298     14294     14297     14299
     14294     14297     14300     14295     14294     14296     14295     14294     14297
     14296     14294     14297     14298     14297     14299     14298     14297     14300
     14299     14297     14300     14301     14302     14303     14301     14302     14304
     14301     14302     14317     14301     14305     14306     14301     14305     14307
     14301     14305     14308     14301     14309     14310     14301     14309     14311
     14301     14309     14312     14301     14313     14314     14301     14313     14315
     14301     14313     14316     14302     14301     14305     14302     14301     14309
     14302     14301     14313     14302     14317     14318     14302     14317     14319
     14302     14317     14323     14303     14302     14304     14303     14302     14317
     14304     14302     14317     14305     14301     14309     14305     14301     14313
     14306     14305     14307     14306     14305     14308     14307     14305     14308
     14309     14301     14313     14310     14309     14311     14310     14309     14312
     14311     14309     14312     14314     14313     14315     14314     14313     14316
     14315     14313     14316     14317     14323     14320     14318     14317     14319
     14318     14317     14323     14319     14317     14323     14320     14324     14325
     14321     14320     14322     14321     14320     14323     14321     14320     14324
     14322     14320     14323     14322     14320     14324     14323     14320     14324
     14324     14325     14326     14324     14325     14327     14324     14325     14328
     14325     14328     14329     14325     14328     14330     14325     14328     14336
     14326     14325     14327     14326     14325     14328     14327     14325     14328
     14328     14330     14331     14328     14336     14337     14328     14336     14338
     14328     14336     14339     14329     14328     14330     14329     14328     14336
     14330     14328     14336     14330     14331     14332     14330     14331     14333
     14331     14333     14334     14331     14333     14335     14331     14333     14345
     14332     14331     14333     14333     14345     14346     14333     14345     14347
     14333     14345     14348     14334     14333     14335     14334     14333     14345
     14335     14333     14345     14336     14339     14340     14337     14336     14338
     14337     14336     14339     14338     14336     14339     14339     14340     14341
     14339     14340     14342     14340     14342     14343     14340     14342     14344
     14340     14342     14392     14341     14340     14342     14342     14392     14393
     14342     14392     14394     14342     14392     14395     14343     14342     14344
     14343     14342     14392     14344     14342     14392     14345     14348     14349
     14345     14348     14350     14345     14348     14351     14346     14345     14347
     14346     14345     14348     14347     14345     14348     14348     14351     14352
     14348     14351     14353     14348     14351     14354     14349     14348     14350
     14349     14348     14351     14350     14348     14351     14351     14354     14355
     14351     14354     14356     14351     14354     14357     14352     14351     14353
     14352     14351     14354     14353     14351     14354     14354     14357     14358
     14354     14357     14359     14354     14357     14360     14355     14354     14356
     14355     14354     14357     14356     14354     14357     14357     14360     14361
     14357     14360     14362     14357     14360     14363     14358     14357     14359
     14358     14357     14360     14359     14357     14360     14360     14363     14364
     14360     14363     14365     14361     14360     14362     14361     14360     14363
     14362     14360     14363     14363     14365     14366     14363     14365     14367
     14364     14363     14365     14365     14367     14368     14365     14367     14369
     14365     14367     14370     14366     14365     14367     14367     14370     14371
     14367     14370     14372     14367     14370     14373     14368     14367     14369
     14368     14367     14370     14369     14367     14370     14370     14373     14374
     14370     14373     14375     14370     14373     14376     14371     14370     14372
     14371     14370     14373     14372     14370     14373     14373     14376     14377
     14373     14376     14378     14373     14376     14379     14374     14373     14375
     14374     14373     14376     14375     14373     14376     14376     14379     14380
     14376     14379     14381     14376     14379     14382     14377     14376     14378
     14377     14376     14379     14378     14376     14379     14379     14382     14383
     14379     14382     14384     14379     14382     14385     14380     14379     14381
     14380     14379     14382     14381     14379     14382     14382     14385     14386
     14382     14385     14387     14382     14385     14388     14383     14382     14384
     14383     14382     14385     14384     14382     14385     14385     14388     14389
     14385     14388     14390     14385     14388     14391     14386     14385     14387
     14386     14385     14388     14387     14385     14388     14389     14388     14390
     14389     14388     14391     14390     14388     14391     14392     14395     14396
     14392     14395     14397     14392     14395     14398     14393     14392     14394
     14393     14392     14395     14394     14392     14395     14395     14398     14399
     14395     14398     14400     14395     14398     14401     14396     14395     14397
     14396     14395     14398     14397     14395     14398     14398     14401     14402
     14398     14401     14403     14398     14401     14404     14399     14398     14400
     14399     14398     14401     14400     14398     14401     14401     14404     14405
     14401     14404     14406     14401     14404     14407     14402     14401     14403
     14402     14401     14404     14403     14401     14404     14404     14407     14408
     14404     14407     14409     14404     14407     14410     14405     14404     14406
     14405     14404     14407     14406     14404     14407     14407     14410     14411
     14407     14410     14412     14408     14407     14409     14408     14407     14410
     14409     14407     14410     14410     14412     14413     14410     14412     14414
     14411     14410     14412     14412     14414     14415     14412     14414     14416
     14412     14414     14417     14413     14412     14414     14414     14417     14418
     14414     14417     14419     14414     14417     14420     14415     14414     14416
     14415     14414     14417     14416     14414     14417     14417     14420     14421
     14417     14420     14422     14417     14420     14423     14418     14417     14419
     14418     14417     14420     14419     14417     14420     14420     14423     14424
     14420     14423     14425     14420     14423     14426     14421     14420     14422
     14421     14420     14423     14422     14420     14423     14423     14426     14427
     14423     14426     14428     14423     14426     14429     14424     14423     14425
     14424     14423     14426     14425     14423     14426     14426     14429     14430
     14426     14429     14431     14426     14429     14432     14427     14426     14428
     14427     14426     14429     14428     14426     14429     14429     14432     14433
     14429     14432     14434     14429     14432     14435     14430     14429     14431
     14430     14429     14432     14431     14429     14432     14432     14435     14436
     14432     14435     14437     14432     14435     14438     14433     14432     14434
     14433     14432     14435     14434     14432     14435     14436     14435     14437
     14436     14435     14438     14437     14435     14438     14439     14440     14441
     14439     14440     14442     14439     14440     14455     14439     14443     14444
     14439     14443     14445     14439     14443     14446     14439     14447     14448
     14439     14447     14449     14439     14447     14450     14439     14451     14452
     14439     14451     14453     14439     14451     14454     14440     14439     14443
     14440     14439     14447     14440     14439     14451     14440     14455     14456
     14440     14455     14457     14440     14455     14461     14441     14440     14442
     14441     14440     14455     14442     14440     14455     14443     14439     14447
     14443     14439     14451     14444     14443     14445     14444     14443     14446
     14445     14443     14446     14447     14439     14451     14448     14447     14449
     14448     14447     14450     14449     14447     14450     14452     14451     14453
     14452     14451     14454     14453     14451     14454     14455     14461     14458
     14456     14455     14457     14456     14455     14461     14457     14455     14461
     14458     14462     14463     14459     14458     14460     14459     14458     14461
     14459     14458     14462     14460     14458     14461     14460     14458     14462
     14461     14458     14462     14462     14463     14464     14462     14463     14465
     14462     14463     14466     14463     14466     14467     14463     14466     14468
     14463     14466     14474     14464     14463     14465     14464     14463     14466
     14465     14463     14466     14466     14468     14469     14466     14474     14475
     14466     14474     14476     14466     14474     14477     14467     14466     14468
     14467     14466     14474     14468     14466     14474     14468     14469     14470
     14468     14469     14471     14469     14471     14472     14469     14471     14473
     14469     14471     14483     14470     14469     14471     14471     14483     14484
     14471     14483     14485     14471     14483     14486     14472     14471     14473
     14472     14471     14483     14473     14471     14483     14474     14477     14478
     14475     14474     14476     14475     14474     14477     14476     14474     14477
     14477     14478     14479     14477     14478     14480     14478     14480     14481
     14478     14480     14482     14478     14480     14530     14479     14478     14480
     14480     14530     14531     14480     14530     14532     14480     14530     14533
     14481     14480     14482     14481     14480     14530     14482     14480     14530
     14483     14486     14487     14483     14486     14488     14483     14486     14489
     14484     14483     14485     14484     14483     14486     14485     14483     14486
     14486     14489     14490     14486     14489     14491     14486     14489     14492
     14487     14486     14488     14487     14486     14489     14488     14486     14489
     14489     14492     14493     14489     14492     14494     14489     14492     14495
     14490     14489     14491     14490     14489     14492     14491     14489     14492
     14492     14495     14496     14492     14495     14497     14492     14495     14498
     14493     14492     14494     14493     14492     14495     14494     14492     14495
     14495     14498     14499     14495     14498     14500     14495     14498     14501
     14496     14495     14497     14496     14495     14498     14497     14495     14498
     14498     14501     14502     14498     14501     14503     14499     14498     14500
     14499     14498     14501     14500     14498     14501     14501     14503     14504
     14501     14503     14505     14502     14501     14503     14503     14505     14506
     14503     14505     14507     14503     14505     14508     14504     14503     14505
     14505     14508     14509     14505     14508     14510     14505     14508     14511
     14506     14505     14507     14506     14505     14508     14507     14505     14508
     14508     14511     14512     14508     14511     14513     14508     14511     14514
     14509     14508     14510     14509     14508     14511     14510     14508     14511
     14511     14514     14515     14511     14514     14516     14511     14514     14517
     14512     14511     14513     14512     14511     14514     14513     14511     14514
     14514     14517     14518     14514     14517     14519     14514     14517     14520
     14515     14514     14516     14515     14514     14517     14516     14514     14517
     14517     14520     14521     14517     14520     14522     14517     14520     14523
     14518     14517     14519     14518     14517     14520     14519     14517     14520
     14520     14523     14524     14520     14523     14525     14520     14523     14526
     14521     14520     14522     14521     14520     14523     14522     14520     14523
     14523     14526     14527     14523     14526     14528     14523     14526     14529
     14524     14523     14525     14524     14523     14526     14525     14523     14526
     14527     14526     14528     14527     14526     14529     14528     14526     14529
     14530     14533     14534     14530     14533     14535     14530     14533     14536
     14531     14530     14532     14531     14530     14533     14532     14530     14533
     14533     14536     14537     14533     14536     14538     14533     14536     14539
     14534     14533     14535     14534     14533     14536     14535     14533     14536
     14536     14539     14540     14536     14539     14541     14536     14539     14542
     14537     14536     14538     14537     14536     14539     14538     14536     14539
     14539     14542     14543     14539     14542     14544     14539     14542     14545
     14540     14539     14541     14540     14539     14542     14541     14539     14542
     14542     14545     14546     14542     14545     14547     14542     14545     14548
     14543     14542     14544     14543     14542     14545     14544     14542     14545
     14545     14548     14549     14545     14548     14550     14546     14545     14547
     14546     14545     14548     14547     14545     14548     14548     14550     14551
     14548     14550     14552     14549     14548     14550     14550     14552     14553
     14550     14552     14554     14550     14552     14555     14551     14550     14552
     14552     14555     14556     14552     14555     14557     14552     14555     14558
     14553     14552     14554     14553     14552     14555     14554     14552     14555
     14555     14558     14559     14555     14558     14560     14555     14558     14561
     14556     14555     14557     14556     14555     14558     14557     14555     14558
     14558     14561     14562     14558     14561     14563     14558     14561     14564
     14559     14558     14560     14559     14558     14561     14560     14558     14561
     14561     14564     14565     14561     14564     14566     14561     14564     14567
     14562     14561     14563     14562     14561     14564     14563     14561     14564
     14564     14567     14568     14564     14567     14569     14564     14567     14570
     14565     14564     14566     14565     14564     14567     14566     14564     14567
     14567     14570     14571     14567     14570     14572     14567     14570     14573
     14568     14567     14569     14568     14567     14570     14569     14567     14570
     14570     14573     14574     14570     14573     14575     14570     14573     14576
     14571     14570     14572     14571     14570     14573     14572     14570     14573
     14574     14573     14575     14574     14573     14576     14575     14573     14576
     14577     14578     14579     14577     14578     14580     14577     14578     14593
     14577     14581     14582     14577     14581     14583     14577     14581     14584
     14577     14585     14586     14577     14585     14587     14577     14585     14588
     14577     14589     14590     14577     14589     14591     14577     14589     14592
     14578     14577     14581     14578     14577     14585     14578     14577     14589
     14578     14593     14594     14578     14593     14595     14578     14593     14599
     14579     14578     14580     14579     14578     14593     14580     14578     14593
     14581     14577     14585     14581     14577     14589     14582     14581     14583
     14582     14581     14584     14583     14581     14584     14585     14577     14589
     14586     14585     14587     14586     14585     14588     14587     14585     14588
     14590     14589     14591     14590     14589     14592     14591     14589     14592
     14593     14599     14596     14594     14593     14595     14594     14593     14599
     14595     14593     14599     14596     14600     14601     14597     14596     14598
     14597     14596     14599     14597     14596     14600     14598     14596     14599
     14598     14596     14600     14599     14596     14600     14600     14601     14602
     14600     14601     14603     14600     14601     14604     14601     14604     14605
     14601     14604     14606     14601     14604     14612     14602     14601     14603
     14602     14601     14604     14603     14601     14604     14604     14606     14607
     14604     14612     14613     14604     14612     14614     14604     14612     14615
     14605     14604     14606     14605     14604     14612     14606     14604     14612
     14606     14607     14608     14606     14607     14609     14607     14609     14610
     14607     14609     14611     14607     14609     14621     14608     14607     14609
     14609     14621     14622     14609     14621     14623     14609     14621     14624
     14610     14609     14611     14610     14609     14621     14611     14609     14621
     14612     14615     14616     14613     14612     14614     14613     14612     14615
     14614     14612     14615     14615     14616     14617     14615     14616     14618
     14616     14618     14619     14616     14618     14620     14616     14618     14668
     14617     14616     14618     14618     14668     14669     14618     14668     14670
     14618     14668     14671     14619     14618     14620     14619     14618     14668
     14620     14618     14668     14621     14624     14625     14621     14624     14626
     14621     14624     14627     14622     14621     14623     14622     14621     14624
     14623     14621     14624     14624     14627     14628     14624     14627     14629
     14624     14627     14630     14625     14624     14626     14625     14624     14627
     14626     14624     14627     14627     14630     14631     14627     14630     14632
     14627     14630     14633     14628     14627     14629     14628     14627     14630
     14629     14627     14630     14630     14633     14634     14630     14633     14635
     14630     14633     14636     14631     14630     14632     14631     14630     14633
     14632     14630     14633     14633     14636     14637     14633     14636     14638
     14633     14636     14639     14634     14633     14635     14634     14633     14636
     14635     14633     14636     14636     14639     14640     14636     14639     14641
     14637     14636     14638     14637     14636     14639     14638     14636     14639
     14639     14641     14642     14639     14641     14643     14640     14639     14641
     14641     14643     14644     14641     14643     14645     14641     14643     14646
     14642     14641     14643     14643     14646     14647     14643     14646     14648
     14643     14646     14649     14644     14643     14645     14644     14643     14646
     14645     14643     14646     14646     14649     14650     14646     14649     14651
     14646     14649     14652     14647     14646     14648     14647     14646     14649
     14648     14646     14649     14649     14652     14653     14649     14652     14654
     14649     14652     14655     14650     14649     14651     14650     14649     14652
     14651     14649     14652     14652     14655     14656     14652     14655     14657
     14652     14655     14658     14653     14652     14654     14653     14652     14655
     14654     14652     14655     14655     14658     14659     14655     14658     14660
     14655     14658     14661     14656     14655     14657     14656     14655     14658
     14657     14655     14658     14658     14661     14662     14658     14661     14663
     14658     14661     14664     14659     14658     14660     14659     14658     14661
     14660     14658     14661     14661     14664     14665     14661     14664     14666
     14661     14664     14667     14662     14661     14663     14662     14661     14664
     14663     14661     14664     14665     14664     14666     14665     14664     14667
     14666     14664     14667     14668     14671     14672     14668     14671     14673
     14668     14671     14674     14669     14668     14670     14669     14668     14671
     14670     14668     14671     14671     14674     14675     14671     14674     14676
     14671     14674     14677     14672     14671     14673     14672     14671     14674
     14673     14671     14674     14674     14677     14678     14674     14677     14679
     14674     14677     14680     14675     14674     14676     14675     14674     14677
     14676     14674     14677     14677     14680     14681     14677     14680     14682
     14677     14680     14683     14678     14677     14679     14678     14677     14680
     14679     14677     14680     14680     14683     14684     14680     14683     14685
     14680     14683     14686     14681     14680     14682     14681     14680     14683
     14682     14680     14683     14683     14686     14687     14683     14686     14688
     14684     14683     14685     14684     14683     14686     14685     14683     14686
     14686     14688     14689     14686     14688     14690     14687     14686     14688
     14688     14690     14691     14688     14690     14692     14688     14690     14693
     14689     14688     14690     14690     14693     14694     14690     14693     14695
     14690     14693     14696     14691     14690     14692     14691     14690     14693
     14692     14690     14693     14693     14696     14697     14693     14696     14698
     14693     14696     14699     14694     14693     14695     14694     14693     14696
     14695     14693     14696     14696     14699     14700     14696     14699     14701
     14696     14699     14702     14697     14696     14698     14697     14696     14699
     14698     14696     14699     14699     14702     14703     14699     14702     14704
     14699     14702     14705     14700     14699     14701     14700     14699     14702
     14701     14699     14702     14702     14705     14706     14702     14705     14707
     14702     14705     14708     14703     14702     14704     14703     14702     14705
     14704     14702     14705     14705     14708     14709     14705     14708     14710
     14705     14708     14711     14706     14705     14707     14706     14705     14708
     14707     14705     14708     14708     14711     14712     14708     14711     14713
     14708     14711     14714     14709     14708     14710     14709     14708     14711
     14710     14708     14711     14712     14711     14713     14712     14711     14714
     14713     14711     14714     14715     14716     14717     14715     14716     14718
     14715     14716     14731     14715     14719     14720     14715     14719     14721
     14715     14719     14722     14715     14723     14724     14715     14723     14725
     14715     14723     14726     14715     14727     14728     14715     14727     14729
     14715     14727     14730     14716     14715     14719     14716     14715     14723
     14716     14715     14727     14716     14731     14732     14716     14731     14733
     14716     14731     14737     14717     14716     14718     14717     14716     14731
     14718     14716     14731     14719     14715     14723     14719     14715     14727
     14720     14719     14721     14720     14719     14722     14721     14719     14722
     14723     14715     14727     14724     14723     14725     14724     14723     14726
     14725     14723     14726     14728     14727     14729     14728     14727     14730
     14729     14727     14730     14731     14737     14734     14732     14731     14733
     14732     14731     14737     14733     14731     14737     14734     14738     14739
     14735     14734     14736     14735     14734     14737     14735     14734     14738
     14736     14734     14737     14736     14734     14738     14737     14734     14738
     14738     14739     14740     14738     14739     14741     14738     14739     14742
     14739     14742     14743     14739     14742     14744     14739     14742     14750
     14740     14739     14741     14740     14739     14742     14741     14739     14742
     14742     14744     14745     14742     14750     14751     14742     14750     14752
     14742     14750     14753     14743     14742     14744     14743     14742     14750
     14744     14742     14750     14744     14745     14746     14744     14745     14747
     14745     14747     14748     14745     14747     14749     14745     14747     14759
     14746     14745     14747     14747     14759     14760     14747     14759     14761
     14747     14759     14762     14748     14747     14749     14748     14747     14759
     14749     14747     14759     14750     14753     14754     14751     14750     14752
     14751     14750     14753     14752     14750     14753     14753     14754     14755
     14753     14754     14756     14754     14756     14757     14754     14756     14758
     14754     14756     14806     14755     14754     14756     14756     14806     14807
     14756     14806     14808     14756     14806     14809     14757     14756     14758
     14757     14756     14806     14758     14756     14806     14759     14762     14763
     14759     14762     14764     14759     14762     14765     14760     14759     14761
     14760     14759     14762     14761     14759     14762     14762     14765     14766
     14762     14765     14767     14762     14765     14768     14763     14762     14764
     14763     14762     14765     14764     14762     14765     14765     14768     14769
     14765     14768     14770     14765     14768     14771     14766     14765     14767
     14766     14765     14768     14767     14765     14768     14768     14771     14772
     14768     14771     14773     14768     14771     14774     14769     14768     14770
     14769     14768     14771     14770     14768     14771     14771     14774     14775
     14771     14774     14776     14771     14774     14777     14772     14771     14773
     14772     14771     14774     14773     14771     14774     14774     14777     14778
     14774     14777     14779     14775     14774     14776     14775     14774     14777
     14776     14774     14777     14777     14779     14780     14777     14779     14781
     14778     14777     14779     14779     14781     14782     14779     14781     14783
     14779     14781     14784     14780     14779     14781     14781     14784     14785
     14781     14784     14786     14781     14784     14787     14782     14781     14783
     14782     14781     14784     14783     14781     14784     14784     14787     14788
     14784     14787     14789     14784     14787     14790     14785     14784     14786
     14785     14784     14787     14786     14784     14787     14787     14790     14791
     14787     14790     14792     14787     14790     14793     14788     14787     14789
     14788     14787     14790     14789     14787     14790     14790     14793     14794
     14790     14793     14795     14790     14793     14796     14791     14790     14792
     14791     14790     14793     14792     14790     14793     14793     14796     14797
     14793     14796     14798     14793     14796     14799     14794     14793     14795
     14794     14793     14796     14795     14793     14796     14796     14799     14800
     14796     14799     14801     14796     14799     14802     14797     14796     14798
     14797     14796     14799     14798     14796     14799     14799     14802     14803
     14799     14802     14804     14799     14802     14805     14800     14799     14801
     14800     14799     14802     14801     14799     14802     14803     14802     14804
     14803     14802     14805     14804     14802     14805     14806     14809     14810
     14806     14809     14811     14806     14809     14812     14807     14806     14808
     14807     14806     14809     14808     14806     14809     14809     14812     14813
     14809     14812     14814     14809     14812     14815     14810     14809     14811
     14810     14809     14812     14811     14809     14812     14812     14815     14816
     14812     14815     14817     14812     14815     14818     14813     14812     14814
     14813     14812     14815     14814     14812     14815     14815     14818     14819
     14815     14818     14820     14815     14818     14821     14816     14815     14817
     14816     14815     14818     14817     14815     14818     14818     14821     14822
     14818     14821     14823     14818     14821     14824     14819     14818     14820
     14819     14818     14821     14820     14818     14821     14821     14824     14825
     14821     14824     14826     14822     14821     14823     14822     14821     14824
     14823     14821     14824     14824     14826     14827     14824     14826     14828
     14825     14824     14826     14826     14828     14829     14826     14828     14830
     14826     14828     14831     14827     14826     14828     14828     14831     14832
     14828     14831     14833     14828     14831     14834     14829     14828     14830
     14829     14828     14831     14830     14828     14831     14831     14834     14835
     14831     14834     14836     14831     14834     14837     14832     14831     14833
     14832     14831     14834     14833     14831     14834     14834     14837     14838
     14834     14837     14839     14834     14837     14840     14835     14834     14836
     14835     14834     14837     14836     14834     14837     14837     14840     14841
     14837     14840     14842     14837     14840     14843     14838     14837     14839
     14838     14837     14840     14839     14837     14840     14840     14843     14844
     14840     14843     14845     14840     14843     14846     14841     14840     14842
     14841     14840     14843     14842     14840     14843     14843     14846     14847
     14843     14846     14848     14843     14846     14849     14844     14843     14845
     14844     14843     14846     14845     14843     14846     14846     14849     14850
     14846     14849     14851     14846     14849     14852     14847     14846     14848
     14847     14846     14849     14848     14846     14849     14850     14849     14851
     14850     14849     14852     14851     14849     14852     14853     14854     14855
     14853     14854     14856     14853     14854     14869     14853     14857     14858
     14853     14857     14859     14853     14857     14860     14853     14861     14862
     14853     14861     14863     14853     14861     14864     14853     14865     14866
     14853     14865     14867     14853     14865     14868     14854     14853     14857
     14854     14853     14861     14854     14853     14865     14854     14869     14870
     14854     14869     14871     14854     14869     14875     14855     14854     14856
     14855     14854     14869     14856     14854     14869     14857     14853     14861
     14857     14853     14865     14858     14857     14859     14858     14857     14860
     14859     14857     14860     14861     14853     14865     14862     14861     14863
     14862     14861     14864     14863     14861     14864     14866     14865     14867
     14866     14865     14868     14867     14865     14868     14869     14875     14872
     14870     14869     14871     14870     14869     14875     14871     14869     14875
     14872     14876     14877     14873     14872     14874     14873     14872     14875
     14873     14872     14876     14874     14872     14875     14874     14872     14876
     14875     14872     14876     14876     14877     14878     14876     14877     14879
     14876     14877     14880     14877     14880     14881     14877     14880     14882
     14877     14880     14888     14878     14877     14879     14878     14877     14880
     14879     14877     14880     14880     14882     14883     14880     14888     14889
     14880     14888     14890     14880     14888     14891     14881     14880     14882
     14881     14880     14888     14882     14880     14888     14882     14883     14884
     14882     14883     14885     14883     14885     14886     14883     14885     14887
     14883     14885     14897     14884     14883     14885     14885     14897     14898
     14885     14897     14899     14885     14897     14900     14886     14885     14887
     14886     14885     14897     14887     14885     14897     14888     14891     14892
     14889     14888     14890     14889     14888     14891     14890     14888     14891
     14891     14892     14893     14891     14892     14894     14892     14894     14895
     14892     14894     14896     14892     14894     14944     14893     14892     14894
     14894     14944     14945     14894     14944     14946     14894     14944     14947
     14895     14894     14896     14895     14894     14944     14896     14894     14944
     14897     14900     14901     14897     14900     14902     14897     14900     14903
     14898     14897     14899     14898     14897     14900     14899     14897     14900
     14900     14903     14904     14900     14903     14905     14900     14903     14906
     14901     14900     14902     14901     14900     14903     14902     14900     14903
     14903     14906     14907     14903     14906     14908     14903     14906     14909
     14904     14903     14905     14904     14903     14906     14905     14903     14906
     14906     14909     14910     14906     14909     14911     14906     14909     14912
     14907     14906     14908     14907     14906     14909     14908     14906     14909
     14909     14912     14913     14909     14912     14914     14909     14912     14915
     14910     14909     14911     14910     14909     14912     14911     14909     14912
     14912     14915     14916     14912     14915     14917     14913     14912     14914
     14913     14912     14915     14914     14912     14915     14915     14917     14918
     14915     14917     14919     14916     14915     14917     14917     14919     14920
     14917     14919     14921     14917     14919     14922     14918     14917     14919
     14919     14922     14923     14919     14922     14924     14919     14922     14925
     14920     14919     14921     14920     14919     14922     14921     14919     14922
     14922     14925     14926     14922     14925     14927     14922     14925     14928
     14923     14922     14924     14923     14922     14925     14924     14922     14925
     14925     14928     14929     14925     14928     14930     14925     14928     14931
     14926     14925     14927     14926     14925     14928     14927     14925     14928
     14928     14931     14932     14928     14931     14933     14928     14931     14934
     14929     14928     14930     14929     14928     14931     14930     14928     14931
     14931     14934     14935     14931     14934     14936     14931     14934     14937
     14932     14931     14933     14932     14931     14934     14933     14931     14934
     14934     14937     14938     14934     14937     14939     14934     14937     14940
     14935     14934     14936     14935     14934     14937     14936     14934     14937
     14937     14940     14941     14937     14940     14942     14937     14940     14943
     14938     14937     14939     14938     14937     14940     14939     14937     14940
     14941     14940     14942     14941     14940     14943     14942     14940     14943
     14944     14947     14948     14944     14947     14949     14944     14947     14950
     14945     14944     14946     14945     14944     14947     14946     14944     14947
     14947     14950     14951     14947     14950     14952     14947     14950     14953
     14948     14947     14949     14948     14947     14950     14949     14947     14950
     14950     14953     14954     14950     14953     14955     14950     14953     14956
     14951     14950     14952     14951     14950     14953     14952     14950     14953
     14953     14956     14957     14953     14956     14958     14953     14956     14959
     14954     14953     14955     14954     14953     14956     14955     14953     14956
     14956     14959     14960     14956     14959     14961     14956     14959     14962
     14957     14956     14958     14957     14956     14959     14958     14956     14959
     14959     14962     14963     14959     14962     14964     14960     14959     14961
     14960     14959     14962     14961     14959     14962     14962     14964     14965
     14962     14964     14966     14963     14962     14964     14964     14966     14967
     14964     14966     14968     14964     14966     14969     14965     14964     14966
     14966     14969     14970     14966     14969     14971     14966     14969     14972
     14967     14966     14968     14967     14966     14969     14968     14966     14969
     14969     14972     14973     14969     14972     14974     14969     14972     14975
     14970     14969     14971     14970     14969     14972     14971     14969     14972
     14972     14975     14976     14972     14975     14977     14972     14975     14978
     14973     14972     14974     14973     14972     14975     14974     14972     14975
     14975     14978     14979     14975     14978     14980     14975     14978     14981
     14976     14975     14977     14976     14975     14978     14977     14975     14978
     14978     14981     14982     14978     14981     14983     14978     14981     14984
     14979     14978     14980     14979     14978     14981     14980     14978     14981
     14981     14984     14985     14981     14984     14986     14981     14984     14987
     14982     14981     14983     14982     14981     14984     14983     14981     14984
     14984     14987     14988     14984     14987     14989     14984     14987     14990
     14985     14984     14986     14985     14984     14987     14986     14984     14987
     14988     14987     14989     14988     14987     14990     14989     14987     14990
     14991     14992     14993     14991     14992     14994     14991     14992     15007
     14991     14995     14996     14991     14995     14997     14991     14995     14998
     14991     14999     15000     14991     14999     15001     14991     14999     15002
     14991     15003     15004     14991     15003     15005     14991     15003     15006
     14992     14991     14995     14992     14991     14999     14992     14991     15003
     14992     15007     15008     14992     15007     15009     14992     15007     15013
     14993     14992     14994     14993     14992     15007     14994     14992     15007
     14995     14991     14999     14995     14991     15003     14996     14995     14997
     14996     14995     14998     14997     14995     14998     14999     14991     15003
     15000     14999     15001     15000     14999     15002     15001     14999     15002
     15004     15003     15005     15004     15003     15006     15005     15003     15006
     15007     15013     15010     15008     15007     15009     15008     15007     15013
     15009     15007     15013     15010     15014     15015     15011     15010     15012
     15011     15010     15013     15011     15010     15014     15012     15010     15013
     15012     15010     15014     15013     15010     15014     15014     15015     15016
     15014     15015     15017     15014     15015     15018     15015     15018     15019
     15015     15018     15020     15015     15018     15026     15016     15015     15017
     15016     15015     15018     15017     15015     15018     15018     15020     15021
     15018     15026     15027     15018     15026     15028     15018     15026     15029
     15019     15018     15020     15019     15018     15026     15020     15018     15026
     15020     15021     15022     15020     15021     15023     15021     15023     15024
     15021     15023     15025     15021     15023     15035     15022     15021     15023
     15023     15035     15036     15023     15035     15037     15023     15035     15038
     15024     15023     15025     15024     15023     15035     15025     15023     15035
     15026     15029     15030     15027     15026     15028     15027     15026     15029
     15028     15026     15029     15029     15030     15031     15029     15030     15032
     15030     15032     15033     15030     15032     15034     15030     15032     15082
     15031     15030     15032     15032     15082     15083     15032     15082     15084
     15032     15082     15085     15033     15032     15034     15033     15032     15082
     15034     15032     15082     15035     15038     15039     15035     15038     15040
     15035     15038     15041     15036     15035     15037     15036     15035     15038
     15037     15035     15038     15038     15041     15042     15038     15041     15043
     15038     15041     15044     15039     15038     15040     15039     15038     15041
     15040     15038     15041     15041     15044     15045     15041     15044     15046
     15041     15044     15047     15042     15041     15043     15042     15041     15044
     15043     15041     15044     15044     15047     15048     15044     15047     15049
     15044     15047     15050     15045     15044     15046     15045     15044     15047
     15046     15044     15047     15047     15050     15051     15047     15050     15052
     15047     15050     15053     15048     15047     15049     15048     15047     15050
     15049     15047     15050     15050     15053     15054     15050     15053     15055
     15051     15050     15052     15051     15050     15053     15052     15050     15053
     15053     15055     15056     15053     15055     15057     15054     15053     15055
     15055     15057     15058     15055     15057     15059     15055     15057     15060
     15056     15055     15057     15057     15060     15061     15057     15060     15062
     15057     15060     15063     15058     15057     15059     15058     15057     15060
     15059     15057     15060     15060     15063     15064     15060     15063     15065
     15060     15063     15066     15061     15060     15062     15061     15060     15063
     15062     15060     15063     15063     15066     15067     15063     15066     15068
     15063     15066     15069     15064     15063     15065     15064     15063     15066
     15065     15063     15066     15066     15069     15070     15066     15069     15071
     15066     15069     15072     15067     15066     15068     15067     15066     15069
     15068     15066     15069     15069     15072     15073     15069     15072     15074
     15069     15072     15075     15070     15069     15071     15070     15069     15072
     15071     15069     15072     15072     15075     15076     15072     15075     15077
     15072     15075     15078     15073     15072     15074     15073     15072     15075
     15074     15072     15075     15075     15078     15079     15075     15078     15080
     15075     15078     15081     15076     15075     15077     15076     15075     15078
     15077     15075     15078     15079     15078     15080     15079     15078     15081
     15080     15078     15081     15082     15085     15086     15082     15085     15087
     15082     15085     15088     15083     15082     15084     15083     15082     15085
     15084     15082     15085     15085     15088     15089     15085     15088     15090
     15085     15088     15091     15086     15085     15087     15086     15085     15088
     15087     15085     15088     15088     15091     15092     15088     15091     15093
     15088     15091     15094     15089     15088     15090     15089     15088     15091
     15090     15088     15091     15091     15094     15095     15091     15094     15096
     15091     15094     15097     15092     15091     15093     15092     15091     15094
     15093     15091     15094     15094     15097     15098     15094     15097     15099
     15094     15097     15100     15095     15094     15096     15095     15094     15097
     15096     15094     15097     15097     15100     15101     15097     15100     15102
     15098     15097     15099     15098     15097     15100     15099     15097     15100
     15100     15102     15103     15100     15102     15104     15101     15100     15102
     15102     15104     15105     15102     15104     15106     15102     15104     15107
     15103     15102     15104     15104     15107     15108     15104     15107     15109
     15104     15107     15110     15105     15104     15106     15105     15104     15107
     15106     15104     15107     15107     15110     15111     15107     15110     15112
     15107     15110     15113     15108     15107     15109     15108     15107     15110
     15109     15107     15110     15110     15113     15114     15110     15113     15115
     15110     15113     15116     15111     15110     15112     15111     15110     15113
     15112     15110     15113     15113     15116     15117     15113     15116     15118
     15113     15116     15119     15114     15113     15115     15114     15113     15116
     15115     15113     15116     15116     15119     15120     15116     15119     15121
     15116     15119     15122     15117     15116     15118     15117     15116     15119
     15118     15116     15119     15119     15122     15123     15119     15122     15124
     15119     15122     15125     15120     15119     15121     15120     15119     15122
     15121     15119     15122     15122     15125     15126     15122     15125     15127
     15122     15125     15128     15123     15122     15124     15123     15122     15125
     15124     15122     15125     15126     15125     15127     15126     15125     15128
     15127     15125     15128     15129     15130     15131     15129     15130     15132
     15129     15130     15145     15129     15133     15134     15129     15133     15135
     15129     15133     15136     15129     15137     15138     15129     15137     15139
     15129     15137     15140     15129     15141     15142     15129     15141     15143
     15129     15141     15144     15130     15129     15133     15130     15129     15137
     15130     15129     15141     15130     15145     15146     15130     15145     15147
     15130     15145     15151     15131     15130     15132     15131     15130     15145
     15132     15130     15145     15133     15129     15137     15133     15129     15141
     15134     15133     15135     15134     15133     15136     15135     15133     15136
     15137     15129     15141     15138     15137     15139     15138     15137     15140
     15139     15137     15140     15142     15141     15143     15142     15141     15144
     15143     15141     15144     15145     15151     15148     15146     15145     15147
     15146     15145     15151     15147     15145     15151     15148     15152     15153
     15149     15148     15150     15149     15148     15151     15149     15148     15152
     15150     15148     15151     15150     15148     15152     15151     15148     15152
     15152     15153     15154     15152     15153     15155     15152     15153     15156
     15153     15156     15157     15153     15156     15158     15153     15156     15164
     15154     15153     15155     15154     15153     15156     15155     15153     15156
     15156     15158     15159     15156     15164     15165     15156     15164     15166
     15156     15164     15167     15157     15156     15158     15157     15156     15164
     15158     15156     15164     15158     15159     15160     15158     15159     15161
     15159     15161     15162     15159     15161     15163     15159     15161     15173
     15160     15159     15161     15161     15173     15174     15161     15173     15175
     15161     15173     15176     15162     15161     15163     15162     15161     15173
     15163     15161     15173     15164     15167     15168     15165     15164     15166
     15165     15164     15167     15166     15164     15167     15167     15168     15169
     15167     15168     15170     15168     15170     15171     15168     15170     15172
     15168     15170     15220     15169     15168     15170     15170     15220     15221
     15170     15220     15222     15170     15220     15223     15171     15170     15172
     15171     15170     15220     15172     15170     15220     15173     15176     15177
     15173     15176     15178     15173     15176     15179     15174     15173     15175
     15174     15173     15176     15175     15173     15176     15176     15179     15180
     15176     15179     15181     15176     15179     15182     15177     15176     15178
     15177     15176     15179     15178     15176     15179     15179     15182     15183
     15179     15182     15184     15179     15182     15185     15180     15179     15181
     15180     15179     15182     15181     15179     15182     15182     15185     15186
     15182     15185     15187     15182     15185     15188     15183     15182     15184
     15183     15182     15185     15184     15182     15185     15185     15188     15189
     15185     15188     15190     15185     15188     15191     15186     15185     15187
     15186     15185     15188     15187     15185     15188     15188     15191     15192
     15188     15191     15193     15189     15188     15190     15189     15188     15191
     15190     15188     15191     15191     15193     15194     15191     15193     15195
     15192     15191     15193     15193     15195     15196     15193     15195     15197
     15193     15195     15198     15194     15193     15195     15195     15198     15199
     15195     15198     15200     15195     15198     15201     15196     15195     15197
     15196     15195     15198     15197     15195     15198     15198     15201     15202
     15198     15201     15203     15198     15201     15204     15199     15198     15200
     15199     15198     15201     15200     15198     15201     15201     15204     15205
     15201     15204     15206     15201     15204     15207     15202     15201     15203
     15202     15201     15204     15203     15201     15204     15204     15207     15208
     15204     15207     15209     15204     15207     15210     15205     15204     15206
     15205     15204     15207     15206     15204     15207     15207     15210     15211
     15207     15210     15212     15207     15210     15213     15208     15207     15209
     15208     15207     15210     15209     15207     15210     15210     15213     15214
     15210     15213     15215     15210     15213     15216     15211     15210     15212
     15211     15210     15213     15212     15210     15213     15213     15216     15217
     15213     15216     15218     15213     15216     15219     15214     15213     15215
     15214     15213     15216     15215     15213     15216     15217     15216     15218
     15217     15216     15219     15218     15216     15219     15220     15223     15224
     15220     15223     15225     15220     15223     15226     15221     15220     15222
     15221     15220     15223     15222     15220     15223     15223     15226     15227
     15223     15226     15228     15223     15226     15229     15224     15223     15225
     15224     15223     15226     15225     15223     15226     15226     15229     15230
     15226     15229     15231     15226     15229     15232     15227     15226     15228
     15227     15226     15229     15228     15226     15229     15229     15232     15233
     15229     15232     15234     15229     15232     15235     15230     15229     15231
     15230     15229     15232     15231     15229     15232     15232     15235     15236
     15232     15235     15237     15232     15235     15238     15233     15232     15234
     15233     15232     15235     15234     15232     15235     15235     15238     15239
     15235     15238     15240     15236     15235     15237     15236     15235     15238
     15237     15235     15238     15238     15240     15241     15238     15240     15242
     15239     15238     15240     15240     15242     15243     15240     15242     15244
     15240     15242     15245     15241     15240     15242     15242     15245     15246
     15242     15245     15247     15242     15245     15248     15243     15242     15244
     15243     15242     15245     15244     15242     15245     15245     15248     15249
     15245     15248     15250     15245     15248     15251     15246     15245     15247
     15246     15245     15248     15247     15245     15248     15248     15251     15252
     15248     15251     15253     15248     15251     15254     15249     15248     15250
     15249     15248     15251     15250     15248     15251     15251     15254     15255
     15251     15254     15256     15251     15254     15257     15252     15251     15253
     15252     15251     15254     15253     15251     15254     15254     15257     15258
     15254     15257     15259     15254     15257     15260     15255     15254     15256
     15255     15254     15257     15256     15254     15257     15257     15260     15261
     15257     15260     15262     15257     15260     15263     15258     15257     15259
     15258     15257     15260     15259     15257     15260     15260     15263     15264
     15260     15263     15265     15260     15263     15266     15261     15260     15262
     15261     15260     15263     15262     15260     15263     15264     15263     15265
     15264     15263     15266     15265     15263     15266     15267     15268     15269
     15267     15268     15270     15267     15268     15283     15267     15271     15272
     15267     15271     15273     15267     15271     15274     15267     15275     15276
     15267     15275     15277     15267     15275     15278     15267     15279     15280
     15267     15279     15281     15267     15279     15282     15268     15267     15271
     15268     15267     15275     15268     15267     15279     15268     15283     15284
     15268     15283     15285     15268     15283     15289     15269     15268     15270
     15269     15268     15283     15270     15268     15283     15271     15267     15275
     15271     15267     15279     15272     15271     15273     15272     15271     15274
     15273     15271     15274     15275     15267     15279     15276     15275     15277
     15276     15275     15278     15277     15275     15278     15280     15279     15281
     15280     15279     15282     15281     15279     15282     15283     15289     15286
     15284     15283     15285     15284     15283     15289     15285     15283     15289
     15286     15290     15291     15287     15286     15288     15287     15286     15289
     15287     15286     15290     15288     15286     15289     15288     15286     15290
     15289     15286     15290     15290     15291     15292     15290     15291     15293
     15290     15291     15294     15291     15294     15295     15291     15294     15296
     15291     15294     15302     15292     15291     15293     15292     15291     15294
     15293     15291     15294     15294     15296     15297     15294     15302     15303
     15294     15302     15304     15294     15302     15305     15295     15294     15296
     15295     15294     15302     15296     15294     15302     15296     15297     15298
     15296     15297     15299     15297     15299     15300     15297     15299     15301
     15297     15299     15311     15298     15297     15299     15299     15311     15312
     15299     15311     15313     15299     15311     15314     15300     15299     15301
     15300     15299     15311     15301     15299     15311     15302     15305     15306
     15303     15302     15304     15303     15302     15305     15304     15302     15305
     15305     15306     15307     15305     15306     15308     15306     15308     15309
     15306     15308     15310     15306     15308     15358     15307     15306     15308
     15308     15358     15359     15308     15358     15360     15308     15358     15361
     15309     15308     15310     15309     15308     15358     15310     15308     15358
     15311     15314     15315     15311     15314     15316     15311     15314     15317
     15312     15311     15313     15312     15311     15314     15313     15311     15314
     15314     15317     15318     15314     15317     15319     15314     15317     15320
     15315     15314     15316     15315     15314     15317     15316     15314     15317
     15317     15320     15321     15317     15320     15322     15317     15320     15323
     15318     15317     15319     15318     15317     15320     15319     15317     15320
     15320     15323     15324     15320     15323     15325     15320     15323     15326
     15321     15320     15322     15321     15320     15323     15322     15320     15323
     15323     15326     15327     15323     15326     15328     15323     15326     15329
     15324     15323     15325     15324     15323     15326     15325     15323     15326
     15326     15329     15330     15326     15329     15331     15327     15326     15328
     15327     15326     15329     15328     15326     15329     15329     15331     15332
     15329     15331     15333     15330     15329     15331     15331     15333     15334
     15331     15333     15335     15331     15333     15336     15332     15331     15333
     15333     15336     15337     15333     15336     15338     15333     15336     15339
     15334     15333     15335     15334     15333     15336     15335     15333     15336
     15336     15339     15340     15336     15339     15341     15336     15339     15342
     15337     15336     15338     15337     15336     15339     15338     15336     15339
     15339     15342     15343     15339     15342     15344     15339     15342     15345
     15340     15339     15341     15340     15339     15342     15341     15339     15342
     15342     15345     15346     15342     15345     15347     15342     15345     15348
     15343     15342     15344     15343     15342     15345     15344     15342     15345
     15345     15348     15349     15345     15348     15350     15345     15348     15351
     15346     15345     15347     15346     15345     15348     15347     15345     15348
     15348     15351     15352     15348     15351     15353     15348     15351     15354
     15349     15348     15350     15349     15348     15351     15350     15348     15351
     15351     15354     15355     15351     15354     15356     15351     15354     15357
     15352     15351     15353     15352     15351     15354     15353     15351     15354
     15355     15354     15356     15355     15354     15357     15356     15354     15357
     15358     15361     15362     15358     15361     15363     15358     15361     15364
     15359     15358     15360     15359     15358     15361     15360     15358     15361
     15361     15364     15365     15361     15364     15366     15361     15364     15367
     15362     15361     15363     15362     15361     15364     15363     15361     15364
     15364     15367     15368     15364     15367     15369     15364     15367     15370
     15365     15364     15366     15365     15364     15367     15366     15364     15367
     15367     15370     15371     15367     15370     15372     15367     15370     15373
     15368     15367     15369     15368     15367     15370     15369     15367     15370
     15370     15373     15374     15370     15373     15375     15370     15373     15376
     15371     15370     15372     15371     15370     15373     15372     15370     15373
     15373     15376     15377     15373     15376     15378     15374     15373     15375
     15374     15373     15376     15375     15373     15376     15376     15378     15379
     15376     15378     15380     15377     15376     15378     15378     15380     15381
     15378     15380     15382     15378     15380     15383     15379     15378     15380
     15380     15383     15384     15380     15383     15385     15380     15383     15386
     15381     15380     15382     15381     15380     15383     15382     15380     15383
     15383     15386     15387     15383     15386     15388     15383     15386     15389
     15384     15383     15385     15384     15383     15386     15385     15383     15386
     15386     15389     15390     15386     15389     15391     15386     15389     15392
     15387     15386     15388     15387     15386     15389     15388     15386     15389
     15389     15392     15393     15389     15392     15394     15389     15392     15395
     15390     15389     15391     15390     15389     15392     15391     15389     15392
     15392     15395     15396     15392     15395     15397     15392     15395     15398
     15393     15392     15394     15393     15392     15395     15394     15392     15395
     15395     15398     15399     15395     15398     15400     15395     15398     15401
     15396     15395     15397     15396     15395     15398     15397     15395     15398
     15398     15401     15402     15398     15401     15403     15398     15401     15404
     15399     15398     15400     15399     15398     15401     15400     15398     15401
     15402     15401     15403     15402     15401     15404     15403     15401     15404
     15405     15406     15407     15405     15406     15408     15405     15406     15421
     15405     15409     15410     15405     15409     15411     15405     15409     15412
     15405     15413     15414     15405     15413     15415     15405     15413     15416
     15405     15417     15418     15405     15417     15419     15405     15417     15420
     15406     15405     15409     15406     15405     15413     15406     15405     15417
     15406     15421     15422     15406     15421     15423     15406     15421     15427
     15407     15406     15408     15407     15406     15421     15408     15406     15421
     15409     15405     15413     15409     15405     15417     15410     15409     15411
     15410     15409     15412     15411     15409     15412     15413     15405     15417
     15414     15413     15415     15414     15413     15416     15415     15413     15416
     15418     15417     15419     15418     15417     15420     15419     15417     15420
     15421     15427     15424     15422     15421     15423     15422     15421     15427
     15423     15421     15427     15424     15428     15429     15425     15424     15426
     15425     15424     15427     15425     15424     15428     15426     15424     15427
     15426     15424     15428     15427     15424     15428     15428     15429     15430
     15428     15429     15431     15428     15429     15432     15429     15432     15433
     15429     15432     15434     15429     15432     15440     15430     15429     15431
     15430     15429     15432     15431     15429     15432     15432     15434     15435
     15432     15440     15441     15432     15440     15442     15432     15440     15443
     15433     15432     15434     15433     15432     15440     15434     15432     15440
     15434     15435     15436     15434     15435     15437     15435     15437     15438
     15435     15437     15439     15435     15437     15449     15436     15435     15437
     15437     15449     15450     15437     15449     15451     15437     15449     15452
     15438     15437     15439     15438     15437     15449     15439     15437     15449
     15440     15443     15444     15441     15440     15442     15441     15440     15443
     15442     15440     15443     15443     15444     15445     15443     15444     15446
     15444     15446     15447     15444     15446     15448     15444     15446     15496
     15445     15444     15446     15446     15496     15497     15446     15496     15498
     15446     15496     15499     15447     15446     15448     15447     15446     15496
     15448     15446     15496     15449     15452     15453     15449     15452     15454
     15449     15452     15455     15450     15449     15451     15450     15449     15452
     15451     15449     15452     15452     15455     15456     15452     15455     15457
     15452     15455     15458     15453     15452     15454     15453     15452     15455
     15454     15452     15455     15455     15458     15459     15455     15458     15460
     15455     15458     15461     15456     15455     15457     15456     15455     15458
     15457     15455     15458     15458     15461     15462     15458     15461     15463
     15458     15461     15464     15459     15458     15460     15459     15458     15461
     15460     15458     15461     15461     15464     15465     15461     15464     15466
     15461     15464     15467     15462     15461     15463     15462     15461     15464
     15463     15461     15464     15464     15467     15468     15464     15467     15469
     15465     15464     15466     15465     15464     15467     15466     15464     15467
     15467     15469     15470     15467     15469     15471     15468     15467     15469
     15469     15471     15472     15469     15471     15473     15469     15471     15474
     15470     15469     15471     15471     15474     15475     15471     15474     15476
     15471     15474     15477     15472     15471     15473     15472     15471     15474
     15473     15471     15474     15474     15477     15478     15474     15477     15479
     15474     15477     15480     15475     15474     15476     15475     15474     15477
     15476     15474     15477     15477     15480     15481     15477     15480     15482
     15477     15480     15483     15478     15477     15479     15478     15477     15480
     15479     15477     15480     15480     15483     15484     15480     15483     15485
     15480     15483     15486     15481     15480     15482     15481     15480     15483
     15482     15480     15483     15483     15486     15487     15483     15486     15488
     15483     15486     15489     15484     15483     15485     15484     15483     15486
     15485     15483     15486     15486     15489     15490     15486     15489     15491
     15486     15489     15492     15487     15486     15488     15487     15486     15489
     15488     15486     15489     15489     15492     15493     15489     15492     15494
     15489     15492     15495     15490     15489     15491     15490     15489     15492
     15491     15489     15492     15493     15492     15494     15493     15492     15495
     15494     15492     15495     15496     15499     15500     15496     15499     15501
     15496     15499     15502     15497     15496     15498     15497     15496     15499
     15498     15496     15499     15499     15502     15503     15499     15502     15504
     15499     15502     15505     15500     15499     15501     15500     15499     15502
     15501     15499     15502     15502     15505     15506     15502     15505     15507
     15502     15505     15508     15503     15502     15504     15503     15502     15505
     15504     15502     15505     15505     15508     15509     15505     15508     15510
     15505     15508     15511     15506     15505     15507     15506     15505     15508
     15507     15505     15508     15508     15511     15512     15508     15511     15513
     15508     15511     15514     15509     15508     15510     15509     15508     15511
     15510     15508     15511     15511     15514     15515     15511     15514     15516
     15512     15511     15513     15512     15511     15514     15513     15511     15514
     15514     15516     15517     15514     15516     15518     15515     15514     15516
     15516     15518     15519     15516     15518     15520     15516     15518     15521
     15517     15516     15518     15518     15521     15522     15518     15521     15523
     15518     15521     15524     15519     15518     15520     15519     15518     15521
     15520     15518     15521     15521     15524     15525     15521     15524     15526
     15521     15524     15527     15522     15521     15523     15522     15521     15524
     15523     15521     15524     15524     15527     15528     15524     15527     15529
     15524     15527     15530     15525     15524     15526     15525     15524     15527
     15526     15524     15527     15527     15530     15531     15527     15530     15532
     15527     15530     15533     15528     15527     15529     15528     15527     15530
     15529     15527     15530     15530     15533     15534     15530     15533     15535
     15530     15533     15536     15531     15530     15532     15531     15530     15533
     15532     15530     15533     15533     15536     15537     15533     15536     15538
     15533     15536     15539     15534     15533     15535     15534     15533     15536
     15535     15533     15536     15536     15539     15540     15536     15539     15541
     15536     15539     15542     15537     15536     15538     15537     15536     15539
     15538     15536     15539     15540     15539     15541     15540     15539     15542
     15541     15539     15542     15543     15544     15545     15543     15544     15546
     15543     15544     15559     15543     15547     15548     15543     15547     15549
     15543     15547     15550     15543     15551     15552     15543     15551     15553
     15543     15551     15554     15543     15555     15556     15543     15555     15557
     15543     15555     15558     15544     15543     15547     15544     15543     15551
     15544     15543     15555     15544     15559     15560     15544     15559     15561
     15544     15559     15565     15545     15544     15546     15545     15544     15559
     15546     15544     15559     15547     15543     15551     15547     15543     15555
     15548     15547     15549     15548     15547     15550     15549     15547     15550
     15551     15543     15555     15552     15551     15553     15552     15551     15554
     15553     15551     15554     15556     15555     15557     15556     15555     15558
     15557     15555     15558     15559     15565     15562     15560     15559     15561
     15560     15559     15565     15561     15559     15565     15562     15566     15567
     15563     15562     15564     15563     15562     15565     15563     15562     15566
     15564     15562     15565     15564     15562     15566     15565     15562     15566
     15566     15567     15568     15566     15567     15569     15566     15567     15570
     15567     15570     15571     15567     15570     15572     15567     15570     15578
     15568     15567     15569     15568     15567     15570     15569     15567     15570
     15570     15572     15573     15570     15578     15579     15570     15578     15580
     15570     15578     15581     15571     15570     15572     15571     15570     15578
     15572     15570     15578     15572     15573     15574     15572     15573     15575
     15573     15575     15576     15573     15575     15577     15573     15575     15587
     15574     15573     15575     15575     15587     15588     15575     15587     15589
     15575     15587     15590     15576     15575     15577     15576     15575     15587
     15577     15575     15587     15578     15581     15582     15579     15578     15580
     15579     15578     15581     15580     15578     15581     15581     15582     15583
     15581     15582     15584     15582     15584     15585     15582     15584     15586
     15582     15584     15634     15583     15582     15584     15584     15634     15635
     15584     15634     15636     15584     15634     15637     15585     15584     15586
     15585     15584     15634     15586     15584     15634     15587     15590     15591
     15587     15590     15592     15587     15590     15593     15588     15587     15589
     15588     15587     15590     15589     15587     15590     15590     15593     15594
     15590     15593     15595     15590     15593     15596     15591     15590     15592
     15591     15590     15593     15592     15590     15593     15593     15596     15597
     15593     15596     15598     15593     15596     15599     15594     15593     15595
     15594     15593     15596     15595     15593     15596     15596     15599     15600
     15596     15599     15601     15596     15599     15602     15597     15596     15598
     15597     15596     15599     15598     15596     15599     15599     15602     15603
     15599     15602     15604     15599     15602     15605     15600     15599     15601
     15600     15599     15602     15601     15599     15602     15602     15605     15606
     15602     15605     15607     15603     15602     15604     15603     15602     15605
     15604     15602     15605     15605     15607     15608     15605     15607     15609
     15606     15605     15607     15607     15609     15610     15607     15609     15611
     15607     15609     15612     15608     15607     15609     15609     15612     15613
     15609     15612     15614     15609     15612     15615     15610     15609     15611
     15610     15609     15612     15611     15609     15612     15612     15615     15616
     15612     15615     15617     15612     15615     15618     15613     15612     15614
     15613     15612     15615     15614     15612     15615     15615     15618     15619
     15615     15618     15620     15615     15618     15621     15616     15615     15617
     15616     15615     15618     15617     15615     15618     15618     15621     15622
     15618     15621     15623     15618     15621     15624     15619     15618     15620
     15619     15618     15621     15620     15618     15621     15621     15624     15625
     15621     15624     15626     15621     15624     15627     15622     15621     15623
     15622     15621     15624     15623     15621     15624     15624     15627     15628
     15624     15627     15629     15624     15627     15630     15625     15624     15626
     15625     15624     15627     15626     15624     15627     15627     15630     15631
     15627     15630     15632     15627     15630     15633     15628     15627     15629
     15628     15627     15630     15629     15627     15630     15631     15630     15632
     15631     15630     15633     15632     15630     15633     15634     15637     15638
     15634     15637     15639     15634     15637     15640     15635     15634     15636
     15635     15634     15637     15636     15634     15637     15637     15640     15641
     15637     15640     15642     15637     15640     15643     15638     15637     15639
     15638     15637     15640     15639     15637     15640     15640     15643     15644
     15640     15643     15645     15640     15643     15646     15641     15640     15642
     15641     15640     15643     15642     15640     15643     15643     15646     15647
     15643     15646     15648     15643     15646     15649     15644     15643     15645
     15644     15643     15646     15645     15643     15646     15646     15649     15650
     15646     15649     15651     15646     15649     15652     15647     15646     15648
     15647     15646     15649     15648     15646     15649     15649     15652     15653
     15649     15652     15654     15650     15649     15651     15650     15649     15652
     15651     15649     15652     15652     15654     15655     15652     15654     15656
     15653     15652     15654     15654     15656     15657     15654     15656     15658
     15654     15656     15659     15655     15654     15656     15656     15659     15660
     15656     15659     15661     15656     15659     15662     15657     15656     15658
     15657     15656     15659     15658     15656     15659     15659     15662     15663
     15659     15662     15664     15659     15662     15665     15660     15659     15661
     15660     15659     15662     15661     15659     15662     15662     15665     15666
     15662     15665     15667     15662     15665     15668     15663     15662     15664
     15663     15662     15665     15664     15662     15665     15665     15668     15669
     15665     15668     15670     15665     15668     15671     15666     15665     15667
     15666     15665     15668     15667     15665     15668     15668     15671     15672
     15668     15671     15673     15668     15671     15674     15669     15668     15670
     15669     15668     15671     15670     15668     15671     15671     15674     15675
     15671     15674     15676     15671     15674     15677     15672     15671     15673
     15672     15671     15674     15673     15671     15674     15674     15677     15678
     15674     15677     15679     15674     15677     15680     15675     15674     15676
     15675     15674     15677     15676     15674     15677     15678     15677     15679
     15678     15677     15680     15679     15677     15680     15681     15682     15683
     15681     15682     15684     15681     15682     15697     15681     15685     15686
     15681     15685     15687     15681     15685     15688     15681     15689     15690
     15681     15689     15691     15681     15689     15692     15681     15693     15694
     15681     15693     15695     15681     15693     15696     15682     15681     15685
     15682     15681     15689     15682     15681     15693     15682     15697     15698
     15682     15697     15699     15682     15697     15703     15683     15682     15684
     15683     15682     15697     15684     15682     15697     15685     15681     15689
     15685     15681     15693     15686     15685     15687     15686     15685     15688
     15687     15685     15688     15689     15681     15693     15690     15689     15691
     15690     15689     15692     15691     15689     15692     15694     15693     15695
     15694     15693     15696     15695     15693     15696     15697     15703     15700
     15698     15697     15699     15698     15697     15703     15699     15697     15703
     15700     15704     15705     15701     15700     15702     15701     15700     15703
     15701     15700     15704     15702     15700     15703     15702     15700     15704
     15703     15700     15704     15704     15705     15706     15704     15705     15707
     15704     15705     15708     15705     15708     15709     15705     15708     15710
     15705     15708     15716     15706     15705     15707     15706     15705     15708
     15707     15705     15708     15708     15710     15711     15708     15716     15717
     15708     15716     15718     15708     15716     15719     15709     15708     15710
     15709     15708     15716     15710     15708     15716     15710     15711     15712
     15710     15711     15713     15711     15713     15714     15711     15713     15715
     15711     15713     15725     15712     15711     15713     15713     15725     15726
     15713     15725     15727     15713     15725     15728     15714     15713     15715
     15714     15713     15725     15715     15713     15725     15716     15719     15720
     15717     15716     15718     15717     15716     15719     15718     15716     15719
     15719     15720     15721     15719     15720     15722     15720     15722     15723
     15720     15722     15724     15720     15722     15772     15721     15720     15722
     15722     15772     15773     15722     15772     15774     15722     15772     15775
     15723     15722     15724     15723     15722     15772     15724     15722     15772
     15725     15728     15729     15725     15728     15730     15725     15728     15731
     15726     15725     15727     15726     15725     15728     15727     15725     15728
     15728     15731     15732     15728     15731     15733     15728     15731     15734
     15729     15728     15730     15729     15728     15731     15730     15728     15731
     15731     15734     15735     15731     15734     15736     15731     15734     15737
     15732     15731     15733     15732     15731     15734     15733     15731     15734
     15734     15737     15738     15734     15737     15739     15734     15737     15740
     15735     15734     15736     15735     15734     15737     15736     15734     15737
     15737     15740     15741     15737     15740     15742     15737     15740     15743
     15738     15737     15739     15738     15737     15740     15739     15737     15740
     15740     15743     15744     15740     15743     15745     15741     15740     15742
     15741     15740     15743     15742     15740     15743     15743     15745     15746
     15743     15745     15747     15744     15743     15745     15745     15747     15748
     15745     15747     15749     15745     15747     15750     15746     15745     15747
     15747     15750     15751     15747     15750     15752     15747     15750     15753
     15748     15747     15749     15748     15747     15750     15749     15747     15750
     15750     15753     15754     15750     15753     15755     15750     15753     15756
     15751     15750     15752     15751     15750     15753     15752     15750     15753
     15753     15756     15757     15753     15756     15758     15753     15756     15759
     15754     15753     15755     15754     15753     15756     15755     15753     15756
     15756     15759     15760     15756     15759     15761     15756     15759     15762
     15757     15756     15758     15757     15756     15759     15758     15756     15759
     15759     15762     15763     15759     15762     15764     15759     15762     15765
     15760     15759     15761     15760     15759     15762     15761     15759     15762
     15762     15765     15766     15762     15765     15767     15762     15765     15768
     15763     15762     15764     15763     15762     15765     15764     15762     15765
     15765     15768     15769     15765     15768     15770     15765     15768     15771
     15766     15765     15767     15766     15765     15768     15767     15765     15768
     15769     15768     15770     15769     15768     15771     15770     15768     15771
     15772     15775     15776     15772     15775     15777     15772     15775     15778
     15773     15772     15774     15773     15772     15775     15774     15772     15775
     15775     15778     15779     15775     15778     15780     15775     15778     15781
     15776     15775     15777     15776     15775     15778     15777     15775     15778
     15778     15781     15782     15778     15781     15783     15778     15781     15784
     15779     15778     15780     15779     15778     15781     15780     15778     15781
     15781     15784     15785     15781     15784     15786     15781     15784     15787
     15782     15781     15783     15782     15781     15784     15783     15781     15784
     15784     15787     15788     15784     15787     15789     15784     15787     15790
     15785     15784     15786     15785     15784     15787     15786     15784     15787
     15787     15790     15791     15787     15790     15792     15788     15787     15789
     15788     15787     15790     15789     15787     15790     15790     15792     15793
     15790     15792     15794     15791     15790     15792     15792     15794     15795
     15792     15794     15796     15792     15794     15797     15793     15792     15794
     15794     15797     15798     15794     15797     15799     15794     15797     15800
     15795     15794     15796     15795     15794     15797     15796     15794     15797
     15797     15800     15801     15797     15800     15802     15797     15800     15803
     15798     15797     15799     15798     15797     15800     15799     15797     15800
     15800     15803     15804     15800     15803     15805     15800     15803     15806
     15801     15800     15802     15801     15800     15803     15802     15800     15803
     15803     15806     15807     15803     15806     15808     15803     15806     15809
     15804     15803     15805     15804     15803     15806     15805     15803     15806
     15806     15809     15810     15806     15809     15811     15806     15809     15812
     15807     15806     15808     15807     15806     15809     15808     15806     15809
     15809     15812     15813     15809     15812     15814     15809     15812     15815
     15810     15809     15811     15810     15809     15812     15811     15809     15812
     15812     15815     15816     15812     15815     15817     15812     15815     15818
     15813     15812     15814     15813     15812     15815     15814     15812     15815
     15816     15815     15817     15816     15815     15818     15817     15815     15818
     15819     15820     15821     15819     15820     15822     15819     15820     15835
     15819     15823     15824     15819     15823     15825     15819     15823     15826
     15819     15827     15828     15819     15827     15829     15819     15827     15830
     15819     15831     15832     15819     15831     15833     15819     15831     15834
     15820     15819     15823     15820     15819     15827     15820     15819     15831
     15820     15835     15836     15820     15835     15837     15820     15835     15841
     15821     15820     15822     15821     15820     15835     15822     15820     15835
     15823     15819     15827     15823     15819     15831     15824     15823     15825
     15824     15823     15826     15825     15823     15826     15827     15819     15831
     15828     15827     15829     15828     15827     15830     15829     15827     15830
     15832     15831     15833     15832     15831     15834     15833     15831     15834
     15835     15841     15838     15836     15835     15837     15836     15835     15841
     15837     15835     15841     15838     15842     15843     15839     15838     15840
     15839     15838     15841     15839     15838     15842     15840     15838     15841
     15840     15838     15842     15841     15838     15842     15842     15843     15844
     15842     15843     15845     15842     15843     15846     15843     15846     15847
     15843     15846     15848     15843     15846     15854     15844     15843     15845
     15844     15843     15846     15845     15843     15846     15846     15848     15849
     15846     15854     15855     15846     15854     15856     15846     15854     15857
     15847     15846     15848     15847     15846     15854     15848     15846     15854
     15848     15849     15850     15848     15849     15851     15849     15851     15852
     15849     15851     15853     15849     15851     15863     15850     15849     15851
     15851     15863     15864     15851     15863     15865     15851     15863     15866
     15852     15851     15853     15852     15851     15863     15853     15851     15863
     15854     15857     15858     15855     15854     15856     15855     15854     15857
     15856     15854     15857     15857     15858     15859     15857     15858     15860
     15858     15860     15861     15858     15860     15862     15858     15860     15910
     15859     15858     15860     15860     15910     15911     15860     15910     15912
     15860     15910     15913     15861     15860     15862     15861     15860     15910
     15862     15860     15910     15863     15866     15867     15863     15866     15868
     15863     15866     15869     15864     15863     15865     15864     15863     15866
     15865     15863     15866     15866     15869     15870     15866     15869     15871
     15866     15869     15872     15867     15866     15868     15867     15866     15869
     15868     15866     15869     15869     15872     15873     15869     15872     15874
     15869     15872     15875     15870     15869     15871     15870     15869     15872
     15871     15869     15872     15872     15875     15876     15872     15875     15877
     15872     15875     15878     15873     15872     15874     15873     15872     15875
     15874     15872     15875     15875     15878     15879     15875     15878     15880
     15875     15878     15881     15876     15875     15877     15876     15875     15878
     15877     15875     15878     15878     15881     15882     15878     15881     15883
     15879     15878     15880     15879     15878     15881     15880     15878     15881
     15881     15883     15884     15881     15883     15885     15882     15881     15883
     15883     15885     15886     15883     15885     15887     15883     15885     15888
     15884     15883     15885     15885     15888     15889     15885     15888     15890
     15885     15888     15891     15886     15885     15887     15886     15885     15888
     15887     15885     15888     15888     15891     15892     15888     15891     15893
     15888     15891     15894     15889     15888     15890     15889     15888     15891
     15890     15888     15891     15891     15894     15895     15891     15894     15896
     15891     15894     15897     15892     15891     15893     15892     15891     15894
     15893     15891     15894     15894     15897     15898     15894     15897     15899
     15894     15897     15900     15895     15894     15896     15895     15894     15897
     15896     15894     15897     15897     15900     15901     15897     15900     15902
     15897     15900     15903     15898     15897     15899     15898     15897     15900
     15899     15897     15900     15900     15903     15904     15900     15903     15905
     15900     15903     15906     15901     15900     15902     15901     15900     15903
     15902     15900     15903     15903     15906     15907     15903     15906     15908
     15903     15906     15909     15904     15903     15905     15904     15903     15906
     15905     15903     15906     15907     15906     15908     15907     15906     15909
     15908     15906     15909     15910     15913     15914     15910     15913     15915
     15910     15913     15916     15911     15910     15912     15911     15910     15913
     15912     15910     15913     15913     15916     15917     15913     15916     15918
     15913     15916     15919     15914     15913     15915     15914     15913     15916
     15915     15913     15916     15916     15919     15920     15916     15919     15921
     15916     15919     15922     15917     15916     15918     15917     15916     15919
     15918     15916     15919     15919     15922     15923     15919     15922     15924
     15919     15922     15925     15920     15919     15921     15920     15919     15922
     15921     15919     15922     15922     15925     15926     15922     15925     15927
     15922     15925     15928     15923     15922     15924     15923     15922     15925
     15924     15922     15925     15925     15928     15929     15925     15928     15930
     15926     15925     15927     15926     15925     15928     15927     15925     15928
     15928     15930     15931     15928     15930     15932     15929     15928     15930
     15930     15932     15933     15930     15932     15934     15930     15932     15935
     15931     15930     15932     15932     15935     15936     15932     15935     15937
     15932     15935     15938     15933     15932     15934     15933     15932     15935
     15934     15932     15935     15935     15938     15939     15935     15938     15940
     15935     15938     15941     15936     15935     15937     15936     15935     15938
     15937     15935     15938     15938     15941     15942     15938     15941     15943
     15938     15941     15944     15939     15938     15940     15939     15938     15941
     15940     15938     15941     15941     15944     15945     15941     15944     15946
     15941     15944     15947     15942     15941     15943     15942     15941     15944
     15943     15941     15944     15944     15947     15948     15944     15947     15949
     15944     15947     15950     15945     15944     15946     15945     15944     15947
     15946     15944     15947     15947     15950     15951     15947     15950     15952
     15947     15950     15953     15948     15947     15949     15948     15947     15950
     15949     15947     15950     15950     15953     15954     15950     15953     15955
     15950     15953     15956     15951     15950     15952     15951     15950     15953
     15952     15950     15953     15954     15953     15955     15954     15953     15956
     15955     15953     15956     15957     15958     15959     15957     15958     15960
     15957     15958     15973     15957     15961     15962     15957     15961     15963
     15957     15961     15964     15957     15965     15966     15957     15965     15967
     15957     15965     15968     15957     15969     15970     15957     15969     15971
     15957     15969     15972     15958     15957     15961     15958     15957     15965
     15958     15957     15969     15958     15973     15974     15958     15973     15975
     15958     15973     15979     15959     15958     15960     15959     15958     15973
     15960     15958     15973     15961     15957     15965     15961     15957     15969
     15962     15961     15963     15962     15961     15964     15963     15961     15964
     15965     15957     15969     15966     15965     15967     15966     15965     15968
     15967     15965     15968     15970     15969     15971     15970     15969     15972
     15971     15969     15972     15973     15979     15976     15974     15973     15975
     15974     15973     15979     15975     15973     15979     15976     15980     15981
     15977     15976     15978     15977     15976     15979     15977     15976     15980
     15978     15976     15979     15978     15976     15980     15979     15976     15980
     15980     15981     15982     15980     15981     15983     15980     15981     15984
     15981     15984     15985     15981     15984     15986     15981     15984     15992
     15982     15981     15983     15982     15981     15984     15983     15981     15984
     15984     15986     15987     15984     15992     15993     15984     15992     15994
     15984     15992     15995     15985     15984     15986     15985     15984     15992
     15986     15984     15992     15986     15987     15988     15986     15987     15989
     15987     15989     15990     15987     15989     15991     15987     15989     16001
     15988     15987     15989     15989     16001     16002     15989     16001     16003
     15989     16001     16004     15990     15989     15991     15990     15989     16001
     15991     15989     16001     15992     15995     15996     15993     15992     15994
     15993     15992     15995     15994     15992     15995     15995     15996     15997
     15995     15996     15998     15996     15998     15999     15996     15998     16000
     15996     15998     16048     15997     15996     15998     15998     16048     16049
     15998     16048     16050     15998     16048     16051     15999     15998     16000
     15999     15998     16048     16000     15998     16048     16001     16004     16005
     16001     16004     16006     16001     16004     16007     16002     16001     16003
     16002     16001     16004     16003     16001     16004     16004     16007     16008
     16004     16007     16009     16004     16007     16010     16005     16004     16006
     16005     16004     16007     16006     16004     16007     16007     16010     16011
     16007     16010     16012     16007     16010     16013     16008     16007     16009
     16008     16007     16010     16009     16007     16010     16010     16013     16014
     16010     16013     16015     16010     16013     16016     16011     16010     16012
     16011     16010     16013     16012     16010     16013     16013     16016     16017
     16013     16016     16018     16013     16016     16019     16014     16013     16015
     16014     16013     16016     16015     16013     16016     16016     16019     16020
     16016     16019     16021     16017     16016     16018     16017     16016     16019
     16018     16016     16019     16019     16021     16022     16019     16021     16023
     16020     16019     16021     16021     16023     16024     16021     16023     16025
     16021     16023     16026     16022     16021     16023     16023     16026     16027
     16023     16026     16028     16023     16026     16029     16024     16023     16025
     16024     16023     16026     16025     16023     16026     16026     16029     16030
     16026     16029     16031     16026     16029     16032     16027     16026     16028
     16027     16026     16029     16028     16026     16029     16029     16032     16033
     16029     16032     16034     16029     16032     16035     16030     16029     16031
     16030     16029     16032     16031     16029     16032     16032     16035     16036
     16032     16035     16037     16032     16035     16038     16033     16032     16034
     16033     16032     16035     16034     16032     16035     16035     16038     16039
     16035     16038     16040     16035     16038     16041     16036     16035     16037
     16036     16035     16038     16037     16035     16038     16038     16041     16042
     16038     16041     16043     16038     16041     16044     16039     16038     16040
     16039     16038     16041     16040     16038     16041     16041     16044     16045
     16041     16044     16046     16041     16044     16047     16042     16041     16043
     16042     16041     16044     16043     16041     16044     16045     16044     16046
     16045     16044     16047     16046     16044     16047     16048     16051     16052
     16048     16051     16053     16048     16051     16054     16049     16048     16050
     16049     16048     16051     16050     16048     16051     16051     16054     16055
     16051     16054     16056     16051     16054     16057     16052     16051     16053
     16052     16051     16054     16053     16051     16054     16054     16057     16058
     16054     16057     16059     16054     16057     16060     16055     16054     16056
     16055     16054     16057     16056     16054     16057     16057     16060     16061
     16057     16060     16062     16057     16060     16063     16058     16057     16059
     16058     16057     16060     16059     16057     16060     16060     16063     16064
     16060     16063     16065     16060     16063     16066     16061     16060     16062
     16061     16060     16063     16062     16060     16063     16063     16066     16067
     16063     16066     16068     16064     16063     16065     16064     16063     16066
     16065     16063     16066     16066     16068     16069     16066     16068     16070
     16067     16066     16068     16068     16070     16071     16068     16070     16072
     16068     16070     16073     16069     16068     16070     16070     16073     16074
     16070     16073     16075     16070     16073     16076     16071     16070     16072
     16071     16070     16073     16072     16070     16073     16073     16076     16077
     16073     16076     16078     16073     16076     16079     16074     16073     16075
     16074     16073     16076     16075     16073     16076     16076     16079     16080
     16076     16079     16081     16076     16079     16082     16077     16076     16078
     16077     16076     16079     16078     16076     16079     16079     16082     16083
     16079     16082     16084     16079     16082     16085     16080     16079     16081
     16080     16079     16082     16081     16079     16082     16082     16085     16086
     16082     16085     16087     16082     16085     16088     16083     16082     16084
     16083     16082     16085     16084     16082     16085     16085     16088     16089
     16085     16088     16090     16085     16088     16091     16086     16085     16087
     16086     16085     16088     16087     16085     16088     16088     16091     16092
     16088     16091     16093     16088     16091     16094     16089     16088     16090
     16089     16088     16091     16090     16088     16091     16092     16091     16093
     16092     16091     16094     16093     16091     16094     16095     16096     16097
     16095     16096     16098     16095     16096     16111     16095     16099     16100
     16095     16099     16101     16095     16099     16102     16095     16103     16104
     16095     16103     16105     16095     16103     16106     16095     16107     16108
     16095     16107     16109     16095     16107     16110     16096     16095     16099
     16096     16095     16103     16096     16095     16107     16096     16111     16112
     16096     16111     16113     16096     16111     16117     16097     16096     16098
     16097     16096     16111     16098     16096     16111     16099     16095     16103
     16099     16095     16107     16100     16099     16101     16100     16099     16102
     16101     16099     16102     16103     16095     16107     16104     16103     16105
     16104     16103     16106     16105     16103     16106     16108     16107     16109
     16108     16107     16110     16109     16107     16110     16111     16117     16114
     16112     16111     16113     16112     16111     16117     16113     16111     16117
     16114     16118     16119     16115     16114     16116     16115     16114     16117
     16115     16114     16118     16116     16114     16117     16116     16114     16118
     16117     16114     16118     16118     16119     16120     16118     16119     16121
     16118     16119     16122     16119     16122     16123     16119     16122     16124
     16119     16122     16130     16120     16119     16121     16120     16119     16122
     16121     16119     16122     16122     16124     16125     16122     16130     16131
     16122     16130     16132     16122     16130     16133     16123     16122     16124
     16123     16122     16130     16124     16122     16130     16124     16125     16126
     16124     16125     16127     16125     16127     16128     16125     16127     16129
     16125     16127     16139     16126     16125     16127     16127     16139     16140
     16127     16139     16141     16127     16139     16142     16128     16127     16129
     16128     16127     16139     16129     16127     16139     16130     16133     16134
     16131     16130     16132     16131     16130     16133     16132     16130     16133
     16133     16134     16135     16133     16134     16136     16134     16136     16137
     16134     16136     16138     16134     16136     16186     16135     16134     16136
     16136     16186     16187     16136     16186     16188     16136     16186     16189
     16137     16136     16138     16137     16136     16186     16138     16136     16186
     16139     16142     16143     16139     16142     16144     16139     16142     16145
     16140     16139     16141     16140     16139     16142     16141     16139     16142
     16142     16145     16146     16142     16145     16147     16142     16145     16148
     16143     16142     16144     16143     16142     16145     16144     16142     16145
     16145     16148     16149     16145     16148     16150     16145     16148     16151
     16146     16145     16147     16146     16145     16148     16147     16145     16148
     16148     16151     16152     16148     16151     16153     16148     16151     16154
     16149     16148     16150     16149     16148     16151     16150     16148     16151
     16151     16154     16155     16151     16154     16156     16151     16154     16157
     16152     16151     16153     16152     16151     16154     16153     16151     16154
     16154     16157     16158     16154     16157     16159     16155     16154     16156
     16155     16154     16157     16156     16154     16157     16157     16159     16160
     16157     16159     16161     16158     16157     16159     16159     16161     16162
     16159     16161     16163     16159     16161     16164     16160     16159     16161
     16161     16164     16165     16161     16164     16166     16161     16164     16167
     16162     16161     16163     16162     16161     16164     16163     16161     16164
     16164     16167     16168     16164     16167     16169     16164     16167     16170
     16165     16164     16166     16165     16164     16167     16166     16164     16167
     16167     16170     16171     16167     16170     16172     16167     16170     16173
     16168     16167     16169     16168     16167     16170     16169     16167     16170
     16170     16173     16174     16170     16173     16175     16170     16173     16176
     16171     16170     16172     16171     16170     16173     16172     16170     16173
     16173     16176     16177     16173     16176     16178     16173     16176     16179
     16174     16173     16175     16174     16173     16176     16175     16173     16176
     16176     16179     16180     16176     16179     16181     16176     16179     16182
     16177     16176     16178     16177     16176     16179     16178     16176     16179
     16179     16182     16183     16179     16182     16184     16179     16182     16185
     16180     16179     16181     16180     16179     16182     16181     16179     16182
     16183     16182     16184     16183     16182     16185     16184     16182     16185
     16186     16189     16190     16186     16189     16191     16186     16189     16192
     16187     16186     16188     16187     16186     16189     16188     16186     16189
     16189     16192     16193     16189     16192     16194     16189     16192     16195
     16190     16189     16191     16190     16189     16192     16191     16189     16192
     16192     16195     16196     16192     16195     16197     16192     16195     16198
     16193     16192     16194     16193     16192     16195     16194     16192     16195
     16195     16198     16199     16195     16198     16200     16195     16198     16201
     16196     16195     16197     16196     16195     16198     16197     16195     16198
     16198     16201     16202     16198     16201     16203     16198     16201     16204
     16199     16198     16200     16199     16198     16201     16200     16198     16201
     16201     16204     16205     16201     16204     16206     16202     16201     16203
     16202     16201     16204     16203     16201     16204     16204     16206     16207
     16204     16206     16208     16205     16204     16206     16206     16208     16209
     16206     16208     16210     16206     16208     16211     16207     16206     16208
     16208     16211     16212     16208     16211     16213     16208     16211     16214
     16209     16208     16210     16209     16208     16211     16210     16208     16211
     16211     16214     16215     16211     16214     16216     16211     16214     16217
     16212     16211     16213     16212     16211     16214     16213     16211     16214
     16214     16217     16218     16214     16217     16219     16214     16217     16220
     16215     16214     16216     16215     16214     16217     16216     16214     16217
     16217     16220     16221     16217     16220     16222     16217     16220     16223
     16218     16217     16219     16218     16217     16220     16219     16217     16220
     16220     16223     16224     16220     16223     16225     16220     16223     16226
     16221     16220     16222     16221     16220     16223     16222     16220     16223
     16223     16226     16227     16223     16226     16228     16223     16226     16229
     16224     16223     16225     16224     16223     16226     16225     16223     16226
     16226     16229     16230     16226     16229     16231     16226     16229     16232
     16227     16226     16228     16227     16226     16229     16228     16226     16229
     16230     16229     16231     16230     16229     16232     16231     16229     16232
     16233     16234     16235     16233     16234     16236     16233     16234     16249
     16233     16237     16238     16233     16237     16239     16233     16237     16240
     16233     16241     16242     16233     16241     16243     16233     16241     16244
     16233     16245     16246     16233     16245     16247     16233     16245     16248
     16234     16233     16237     16234     16233     16241     16234     16233     16245
     16234     16249     16250     16234     16249     16251     16234     16249     16255
     16235     16234     16236     16235     16234     16249     16236     16234     16249
     16237     16233     16241     16237     16233     16245     16238     16237     16239
     16238     16237     16240     16239     16237     16240     16241     16233     16245
     16242     16241     16243     16242     16241     16244     16243     16241     16244
     16246     16245     16247     16246     16245     16248     16247     16245     16248
     16249     16255     16252     16250     16249     16251     16250     16249     16255
     16251     16249     16255     16252     16256     16257     16253     16252     16254
     16253     16252     16255     16253     16252     16256     16254     16252     16255
     16254     16252     16256     16255     16252     16256     16256     16257     16258
     16256     16257     16259     16256     16257     16260     16257     16260     16261
     16257     16260     16262     16257     16260     16268     16258     16257     16259
     16258     16257     16260     16259     16257     16260     16260     16262     16263
     16260     16268     16269     16260     16268     16270     16260     16268     16271
     16261     16260     16262     16261     16260     16268     16262     16260     16268
     16262     16263     16264     16262     16263     16265     16263     16265     16266
     16263     16265     16267     16263     16265     16277     16264     16263     16265
     16265     16277     16278     16265     16277     16279     16265     16277     16280
     16266     16265     16267     16266     16265     16277     16267     16265     16277
     16268     16271     16272     16269     16268     16270     16269     16268     16271
     16270     16268     16271     16271     16272     16273     16271     16272     16274
     16272     16274     16275     16272     16274     16276     16272     16274     16324
     16273     16272     16274     16274     16324     16325     16274     16324     16326
     16274     16324     16327     16275     16274     16276     16275     16274     16324
     16276     16274     16324     16277     16280     16281     16277     16280     16282
     16277     16280     16283     16278     16277     16279     16278     16277     16280
     16279     16277     16280     16280     16283     16284     16280     16283     16285
     16280     16283     16286     16281     16280     16282     16281     16280     16283
     16282     16280     16283     16283     16286     16287     16283     16286     16288
     16283     16286     16289     16284     16283     16285     16284     16283     16286
     16285     16283     16286     16286     16289     16290     16286     16289     16291
     16286     16289     16292     16287     16286     16288     16287     16286     16289
     16288     16286     16289     16289     16292     16293     16289     16292     16294
     16289     16292     16295     16290     16289     16291     16290     16289     16292
     16291     16289     16292     16292     16295     16296     16292     16295     16297
     16293     16292     16294     16293     16292     16295     16294     16292     16295
     16295     16297     16298     16295     16297     16299     16296     16295     16297
     16297     16299     16300     16297     16299     16301     16297     16299     16302
     16298     16297     16299     16299     16302     16303     16299     16302     16304
     16299     16302     16305     16300     16299     16301     16300     16299     16302
     16301     16299     16302     16302     16305     16306     16302     16305     16307
     16302     16305     16308     16303     16302     16304     16303     16302     16305
     16304     16302     16305     16305     16308     16309     16305     16308     16310
     16305     16308     16311     16306     16305     16307     16306     16305     16308
     16307     16305     16308     16308     16311     16312     16308     16311     16313
     16308     16311     16314     16309     16308     16310     16309     16308     16311
     16310     16308     16311     16311     16314     16315     16311     16314     16316
     16311     16314     16317     16312     16311     16313     16312     16311     16314
     16313     16311     16314     16314     16317     16318     16314     16317     16319
     16314     16317     16320     16315     16314     16316     16315     16314     16317
     16316     16314     16317     16317     16320     16321     16317     16320     16322
     16317     16320     16323     16318     16317     16319     16318     16317     16320
     16319     16317     16320     16321     16320     16322     16321     16320     16323
     16322     16320     16323     16324     16327     16328     16324     16327     16329
     16324     16327     16330     16325     16324     16326     16325     16324     16327
     16326     16324     16327     16327     16330     16331     16327     16330     16332
     16327     16330     16333     16328     16327     16329     16328     16327     16330
     16329     16327     16330     16330     16333     16334     16330     16333     16335
     16330     16333     16336     16331     16330     16332     16331     16330     16333
     16332     16330     16333     16333     16336     16337     16333     16336     16338
     16333     16336     16339     16334     16333     16335     16334     16333     16336
     16335     16333     16336     16336     16339     16340     16336     16339     16341
     16336     16339     16342     16337     16336     16338     16337     16336     16339
     16338     16336     16339     16339     16342     16343     16339     16342     16344
     16340     16339     16341     16340     16339     16342     16341     16339     16342
     16342     16344     16345     16342     16344     16346     16343     16342     16344
     16344     16346     16347     16344     16346     16348     16344     16346     16349
     16345     16344     16346     16346     16349     16350     16346     16349     16351
     16346     16349     16352     16347     16346     16348     16347     16346     16349
     16348     16346     16349     16349     16352     16353     16349     16352     16354
     16349     16352     16355     16350     16349     16351     16350     16349     16352
     16351     16349     16352     16352     16355     16356     16352     16355     16357
     16352     16355     16358     16353     16352     16354     16353     16352     16355
     16354     16352     16355     16355     16358     16359     16355     16358     16360
     16355     16358     16361     16356     16355     16357     16356     16355     16358
     16357     16355     16358     16358     16361     16362     16358     16361     16363
     16358     16361     16364     16359     16358     16360     16359     16358     16361
     16360     16358     16361     16361     16364     16365     16361     16364     16366
     16361     16364     16367     16362     16361     16363     16362     16361     16364
     16363     16361     16364     16364     16367     16368     16364     16367     16369
     16364     16367     16370     16365     16364     16366     16365     16364     16367
     16366     16364     16367     16368     16367     16369     16368     16367     16370
     16369     16367     16370     16371     16372     16373     16371     16372     16374
     16371     16372     16387     16371     16375     16376     16371     16375     16377
     16371     16375     16378     16371     16379     16380     16371     16379     16381
     16371     16379     16382     16371     16383     16384     16371     16383     16385
     16371     16383     16386     16372     16371     16375     16372     16371     16379
     16372     16371     16383     16372     16387     16388     16372     16387     16389
     16372     16387     16393     16373     16372     16374     16373     16372     16387
     16374     16372     16387     16375     16371     16379     16375     16371     16383
     16376     16375     16377     16376     16375     16378     16377     16375     16378
     16379     16371     16383     16380     16379     16381     16380     16379     16382
     16381     16379     16382     16384     16383     16385     16384     16383     16386
     16385     16383     16386     16387     16393     16390     16388     16387     16389
     16388     16387     16393     16389     16387     16393     16390     16394     16395
     16391     16390     16392     16391     16390     16393     16391     16390     16394
     16392     16390     16393     16392     16390     16394     16393     16390     16394
     16394     16395     16396     16394     16395     16397     16394     16395     16398
     16395     16398     16399     16395     16398     16400     16395     16398     16406
     16396     16395     16397     16396     16395     16398     16397     16395     16398
     16398     16400     16401     16398     16406     16407     16398     16406     16408
     16398     16406     16409     16399     16398     16400     16399     16398     16406
     16400     16398     16406     16400     16401     16402     16400     16401     16403
     16401     16403     16404     16401     16403     16405     16401     16403     16415
     16402     16401     16403     16403     16415     16416     16403     16415     16417
     16403     16415     16418     16404     16403     16405     16404     16403     16415
     16405     16403     16415     16406     16409     16410     16407     16406     16408
     16407     16406     16409     16408     16406     16409     16409     16410     16411
     16409     16410     16412     16410     16412     16413     16410     16412     16414
     16410     16412     16462     16411     16410     16412     16412     16462     16463
     16412     16462     16464     16412     16462     16465     16413     16412     16414
     16413     16412     16462     16414     16412     16462     16415     16418     16419
     16415     16418     16420     16415     16418     16421     16416     16415     16417
     16416     16415     16418     16417     16415     16418     16418     16421     16422
     16418     16421     16423     16418     16421     16424     16419     16418     16420
     16419     16418     16421     16420     16418     16421     16421     16424     16425
     16421     16424     16426     16421     16424     16427     16422     16421     16423
     16422     16421     16424     16423     16421     16424     16424     16427     16428
     16424     16427     16429     16424     16427     16430     16425     16424     16426
     16425     16424     16427     16426     16424     16427     16427     16430     16431
     16427     16430     16432     16427     16430     16433     16428     16427     16429
     16428     16427     16430     16429     16427     16430     16430     16433     16434
     16430     16433     16435     16431     16430     16432     16431     16430     16433
     16432     16430     16433     16433     16435     16436     16433     16435     16437
     16434     16433     16435     16435     16437     16438     16435     16437     16439
     16435     16437     16440     16436     16435     16437     16437     16440     16441
     16437     16440     16442     16437     16440     16443     16438     16437     16439
     16438     16437     16440     16439     16437     16440     16440     16443     16444
     16440     16443     16445     16440     16443     16446     16441     16440     16442
     16441     16440     16443     16442     16440     16443     16443     16446     16447
     16443     16446     16448     16443     16446     16449     16444     16443     16445
     16444     16443     16446     16445     16443     16446     16446     16449     16450
     16446     16449     16451     16446     16449     16452     16447     16446     16448
     16447     16446     16449     16448     16446     16449     16449     16452     16453
     16449     16452     16454     16449     16452     16455     16450     16449     16451
     16450     16449     16452     16451     16449     16452     16452     16455     16456
     16452     16455     16457     16452     16455     16458     16453     16452     16454
     16453     16452     16455     16454     16452     16455     16455     16458     16459
     16455     16458     16460     16455     16458     16461     16456     16455     16457
     16456     16455     16458     16457     16455     16458     16459     16458     16460
     16459     16458     16461     16460     16458     16461     16462     16465     16466
     16462     16465     16467     16462     16465     16468     16463     16462     16464
     16463     16462     16465     16464     16462     16465     16465     16468     16469
     16465     16468     16470     16465     16468     16471     16466     16465     16467
     16466     16465     16468     16467     16465     16468     16468     16471     16472
     16468     16471     16473     16468     16471     16474     16469     16468     16470
     16469     16468     16471     16470     16468     16471     16471     16474     16475
     16471     16474     16476     16471     16474     16477     16472     16471     16473
     16472     16471     16474     16473     16471     16474     16474     16477     16478
     16474     16477     16479     16474     16477     16480     16475     16474     16476
     16475     16474     16477     16476     16474     16477     16477     16480     16481
     16477     16480     16482     16478     16477     16479     16478     16477     16480
     16479     16477     16480     16480     16482     16483     16480     16482     16484
     16481     16480     16482     16482     16484     16485     16482     16484     16486
     16482     16484     16487     16483     16482     16484     16484     16487     16488
     16484     16487     16489     16484     16487     16490     16485     16484     16486
     16485     16484     16487     16486     16484     16487     16487     16490     16491
     16487     16490     16492     16487     16490     16493     16488     16487     16489
     16488     16487     16490     16489     16487     16490     16490     16493     16494
     16490     16493     16495     16490     16493     16496     16491     16490     16492
     16491     16490     16493     16492     16490     16493     16493     16496     16497
     16493     16496     16498     16493     16496     16499     16494     16493     16495
     16494     16493     16496     16495     16493     16496     16496     16499     16500
     16496     16499     16501     16496     16499     16502     16497     16496     16498
     16497     16496     16499     16498     16496     16499     16499     16502     16503
     16499     16502     16504     16499     16502     16505     16500     16499     16501
     16500     16499     16502     16501     16499     16502     16502     16505     16506
     16502     16505     16507     16502     16505     16508     16503     16502     16504
     16503     16502     16505     16504     16502     16505     16506     16505     16507
     16506     16505     16508     16507     16505     16508     16509     16510     16511
     16509     16510     16512     16509     16510     16525     16509     16513     16514
     16509     16513     16515     16509     16513     16516     16509     16517     16518
     16509     16517     16519     16509     16517     16520     16509     16521     16522
     16509     16521     16523     16509     16521     16524     16510     16509     16513
     16510     16509     16517     16510     16509     16521     16510     16525     16526
     16510     16525     16527     16510     16525     16531     16511     16510     16512
     16511     16510     16525     16512     16510     16525     16513     16509     16517
     16513     16509     16521     16514     16513     16515     16514     16513     16516
     16515     16513     16516     16517     16509     16521     16518     16517     16519
     16518     16517     16520     16519     16517     16520     16522     16521     16523
     16522     16521     16524     16523     16521     16524     16525     16531     16528
     16526     16525     16527     16526     16525     16531     16527     16525     16531
     16528     16532     16533     16529     16528     16530     16529     16528     16531
     16529     16528     16532     16530     16528     16531     16530     16528     16532
     16531     16528     16532     16532     16533     16534     16532     16533     16535
     16532     16533     16536     16533     16536     16537     16533     16536     16538
     16533     16536     16544     16534     16533     16535     16534     16533     16536
     16535     16533     16536     16536     16538     16539     16536     16544     16545
     16536     16544     16546     16536     16544     16547     16537     16536     16538
     16537     16536     16544     16538     16536     16544     16538     16539     16540
     16538     16539     16541     16539     16541     16542     16539     16541     16543
     16539     16541     16553     16540     16539     16541     16541     16553     16554
     16541     16553     16555     16541     16553     16556     16542     16541     16543
     16542     16541     16553     16543     16541     16553     16544     16547     16548
     16545     16544     16546     16545     16544     16547     16546     16544     16547
     16547     16548     16549     16547     16548     16550     16548     16550     16551
     16548     16550     16552     16548     16550     16600     16549     16548     16550
     16550     16600     16601     16550     16600     16602     16550     16600     16603
     16551     16550     16552     16551     16550     16600     16552     16550     16600
     16553     16556     16557     16553     16556     16558     16553     16556     16559
     16554     16553     16555     16554     16553     16556     16555     16553     16556
     16556     16559     16560     16556     16559     16561     16556     16559     16562
     16557     16556     16558     16557     16556     16559     16558     16556     16559
     16559     16562     16563     16559     16562     16564     16559     16562     16565
     16560     16559     16561     16560     16559     16562     16561     16559     16562
     16562     16565     16566     16562     16565     16567     16562     16565     16568
     16563     16562     16564     16563     16562     16565     16564     16562     16565
     16565     16568     16569     16565     16568     16570     16565     16568     16571
     16566     16565     16567     16566     16565     16568     16567     16565     16568
     16568     16571     16572     16568     16571     16573     16569     16568     16570
     16569     16568     16571     16570     16568     16571     16571     16573     16574
     16571     16573     16575     16572     16571     16573     16573     16575     16576
     16573     16575     16577     16573     16575     16578     16574     16573     16575
     16575     16578     16579     16575     16578     16580     16575     16578     16581
     16576     16575     16577     16576     16575     16578     16577     16575     16578
     16578     16581     16582     16578     16581     16583     16578     16581     16584
     16579     16578     16580     16579     16578     16581     16580     16578     16581
     16581     16584     16585     16581     16584     16586     16581     16584     16587
     16582     16581     16583     16582     16581     16584     16583     16581     16584
     16584     16587     16588     16584     16587     16589     16584     16587     16590
     16585     16584     16586     16585     16584     16587     16586     16584     16587
     16587     16590     16591     16587     16590     16592     16587     16590     16593
     16588     16587     16589     16588     16587     16590     16589     16587     16590
     16590     16593     16594     16590     16593     16595     16590     16593     16596
     16591     16590     16592     16591     16590     16593     16592     16590     16593
     16593     16596     16597     16593     16596     16598     16593     16596     16599
     16594     16593     16595     16594     16593     16596     16595     16593     16596
     16597     16596     16598     16597     16596     16599     16598     16596     16599
     16600     16603     16604     16600     16603     16605     16600     16603     16606
     16601     16600     16602     16601     16600     16603     16602     16600     16603
     16603     16606     16607     16603     16606     16608     16603     16606     16609
     16604     16603     16605     16604     16603     16606     16605     16603     16606
     16606     16609     16610     16606     16609     16611     16606     16609     16612
     16607     16606     16608     16607     16606     16609     16608     16606     16609
     16609     16612     16613     16609     16612     16614     16609     16612     16615
     16610     16609     16611     16610     16609     16612     16611     16609     16612
     16612     16615     16616     16612     16615     16617     16612     16615     16618
     16613     16612     16614     16613     16612     16615     16614     16612     16615
     16615     16618     16619     16615     16618     16620     16616     16615     16617
     16616     16615     16618     16617     16615     16618     16618     16620     16621
     16618     16620     16622     16619     16618     16620     16620     16622     16623
     16620     16622     16624     16620     16622     16625     16621     16620     16622
     16622     16625     16626     16622     16625     16627     16622     16625     16628
     16623     16622     16624     16623     16622     16625     16624     16622     16625
     16625     16628     16629     16625     16628     16630     16625     16628     16631
     16626     16625     16627     16626     16625     16628     16627     16625     16628
     16628     16631     16632     16628     16631     16633     16628     16631     16634
     16629     16628     16630     16629     16628     16631     16630     16628     16631
     16631     16634     16635     16631     16634     16636     16631     16634     16637
     16632     16631     16633     16632     16631     16634     16633     16631     16634
     16634     16637     16638     16634     16637     16639     16634     16637     16640
     16635     16634     16636     16635     16634     16637     16636     16634     16637
     16637     16640     16641     16637     16640     16642     16637     16640     16643
     16638     16637     16639     16638     16637     16640     16639     16637     16640
     16640     16643     16644     16640     16643     16645     16640     16643     16646
     16641     16640     16642     16641     16640     16643     16642     16640     16643
     16644     16643     16645     16644     16643     16646     16645     16643     16646
     16647     16648     16649     16647     16648     16650     16647     16648     16663
     16647     16651     16652     16647     16651     16653     16647     16651     16654
     16647     16655     16656     16647     16655     16657     16647     16655     16658
     16647     16659     16660     16647     16659     16661     16647     16659     16662
     16648     16647     16651     16648     16647     16655     16648     16647     16659
     16648     16663     16664     16648     16663     16665     16648     16663     16669
     16649     16648     16650     16649     16648     16663     16650     16648     16663
     16651     16647     16655     16651     16647     16659     16652     16651     16653
     16652     16651     16654     16653     16651     16654     16655     16647     16659
     16656     16655     16657     16656     16655     16658     16657     16655     16658
     16660     16659     16661     16660     16659     16662     16661     16659     16662
     16663     16669     16666     16664     16663     16665     16664     16663     16669
     16665     16663     16669     16666     16670     16671     16667     16666     16668
     16667     16666     16669     16667     16666     16670     16668     16666     16669
     16668     16666     16670     16669     16666     16670     16670     16671     16672
     16670     16671     16673     16670     16671     16674     16671     16674     16675
     16671     16674     16676     16671     16674     16682     16672     16671     16673
     16672     16671     16674     16673     16671     16674     16674     16676     16677
     16674     16682     16683     16674     16682     16684     16674     16682     16685
     16675     16674     16676     16675     16674     16682     16676     16674     16682
     16676     16677     16678     16676     16677     16679     16677     16679     16680
     16677     16679     16681     16677     16679     16691     16678     16677     16679
     16679     16691     16692     16679     16691     16693     16679     16691     16694
     16680     16679     16681     16680     16679     16691     16681     16679     16691
     16682     16685     16686     16683     16682     16684     16683     16682     16685
     16684     16682     16685     16685     16686     16687     16685     16686     16688
     16686     16688     16689     16686     16688     16690     16686     16688     16738
     16687     16686     16688     16688     16738     16739     16688     16738     16740
     16688     16738     16741     16689     16688     16690     16689     16688     16738
     16690     16688     16738     16691     16694     16695     16691     16694     16696
     16691     16694     16697     16692     16691     16693     16692     16691     16694
     16693     16691     16694     16694     16697     16698     16694     16697     16699
     16694     16697     16700     16695     16694     16696     16695     16694     16697
     16696     16694     16697     16697     16700     16701     16697     16700     16702
     16697     16700     16703     16698     16697     16699     16698     16697     16700
     16699     16697     16700     16700     16703     16704     16700     16703     16705
     16700     16703     16706     16701     16700     16702     16701     16700     16703
     16702     16700     16703     16703     16706     16707     16703     16706     16708
     16703     16706     16709     16704     16703     16705     16704     16703     16706
     16705     16703     16706     16706     16709     16710     16706     16709     16711
     16707     16706     16708     16707     16706     16709     16708     16706     16709
     16709     16711     16712     16709     16711     16713     16710     16709     16711
     16711     16713     16714     16711     16713     16715     16711     16713     16716
     16712     16711     16713     16713     16716     16717     16713     16716     16718
     16713     16716     16719     16714     16713     16715     16714     16713     16716
     16715     16713     16716     16716     16719     16720     16716     16719     16721
     16716     16719     16722     16717     16716     16718     16717     16716     16719
     16718     16716     16719     16719     16722     16723     16719     16722     16724
     16719     16722     16725     16720     16719     16721     16720     16719     16722
     16721     16719     16722     16722     16725     16726     16722     16725     16727
     16722     16725     16728     16723     16722     16724     16723     16722     16725
     16724     16722     16725     16725     16728     16729     16725     16728     16730
     16725     16728     16731     16726     16725     16727     16726     16725     16728
     16727     16725     16728     16728     16731     16732     16728     16731     16733
     16728     16731     16734     16729     16728     16730     16729     16728     16731
     16730     16728     16731     16731     16734     16735     16731     16734     16736
     16731     16734     16737     16732     16731     16733     16732     16731     16734
     16733     16731     16734     16735     16734     16736     16735     16734     16737
     16736     16734     16737     16738     16741     16742     16738     16741     16743
     16738     16741     16744     16739     16738     16740     16739     16738     16741
     16740     16738     16741     16741     16744     16745     16741     16744     16746
     16741     16744     16747     16742     16741     16743     16742     16741     16744
     16743     16741     16744     16744     16747     16748     16744     16747     16749
     16744     16747     16750     16745     16744     16746     16745     16744     16747
     16746     16744     16747     16747     16750     16751     16747     16750     16752
     16747     16750     16753     16748     16747     16749     16748     16747     16750
     16749     16747     16750     16750     16753     16754     16750     16753     16755
     16750     16753     16756     16751     16750     16752     16751     16750     16753
     16752     16750     16753     16753     16756     16757     16753     16756     16758
     16754     16753     16755     16754     16753     16756     16755     16753     16756
     16756     16758     16759     16756     16758     16760     16757     16756     16758
     16758     16760     16761     16758     16760     16762     16758     16760     16763
     16759     16758     16760     16760     16763     16764     16760     16763     16765
     16760     16763     16766     16761     16760     16762     16761     16760     16763
     16762     16760     16763     16763     16766     16767     16763     16766     16768
     16763     16766     16769     16764     16763     16765     16764     16763     16766
     16765     16763     16766     16766     16769     16770     16766     16769     16771
     16766     16769     16772     16767     16766     16768     16767     16766     16769
     16768     16766     16769     16769     16772     16773     16769     16772     16774
     16769     16772     16775     16770     16769     16771     16770     16769     16772
     16771     16769     16772     16772     16775     16776     16772     16775     16777
     16772     16775     16778     16773     16772     16774     16773     16772     16775
     16774     16772     16775     16775     16778     16779     16775     16778     16780
     16775     16778     16781     16776     16775     16777     16776     16775     16778
     16777     16775     16778     16778     16781     16782     16778     16781     16783
     16778     16781     16784     16779     16778     16780     16779     16778     16781
     16780     16778     16781     16782     16781     16783     16782     16781     16784
     16783     16781     16784     16785     16786     16787     16785     16786     16788
     16785     16786     16801     16785     16789     16790     16785     16789     16791
     16785     16789     16792     16785     16793     16794     16785     16793     16795
     16785     16793     16796     16785     16797     16798     16785     16797     16799
     16785     16797     16800     16786     16785     16789     16786     16785     16793
     16786     16785     16797     16786     16801     16802     16786     16801     16803
     16786     16801     16807     16787     16786     16788     16787     16786     16801
     16788     16786     16801     16789     16785     16793     16789     16785     16797
     16790     16789     16791     16790     16789     16792     16791     16789     16792
     16793     16785     16797     16794     16793     16795     16794     16793     16796
     16795     16793     16796     16798     16797     16799     16798     16797     16800
     16799     16797     16800     16801     16807     16804     16802     16801     16803
     16802     16801     16807     16803     16801     16807     16804     16808     16809
     16805     16804     16806     16805     16804     16807     16805     16804     16808
     16806     16804     16807     16806     16804     16808     16807     16804     16808
     16808     16809     16810     16808     16809     16811     16808     16809     16812
     16809     16812     16813     16809     16812     16814     16809     16812     16820
     16810     16809     16811     16810     16809     16812     16811     16809     16812
     16812     16814     16815     16812     16820     16821     16812     16820     16822
     16812     16820     16823     16813     16812     16814     16813     16812     16820
     16814     16812     16820     16814     16815     16816     16814     16815     16817
     16815     16817     16818     16815     16817     16819     16815     16817     16829
     16816     16815     16817     16817     16829     16830     16817     16829     16831
     16817     16829     16832     16818     16817     16819     16818     16817     16829
     16819     16817     16829     16820     16823     16824     16821     16820     16822
     16821     16820     16823     16822     16820     16823     16823     16824     16825
     16823     16824     16826     16824     16826     16827     16824     16826     16828
     16824     16826     16876     16825     16824     16826     16826     16876     16877
     16826     16876     16878     16826     16876     16879     16827     16826     16828
     16827     16826     16876     16828     16826     16876     16829     16832     16833
     16829     16832     16834     16829     16832     16835     16830     16829     16831
     16830     16829     16832     16831     16829     16832     16832     16835     16836
     16832     16835     16837     16832     16835     16838     16833     16832     16834
     16833     16832     16835     16834     16832     16835     16835     16838     16839
     16835     16838     16840     16835     16838     16841     16836     16835     16837
     16836     16835     16838     16837     16835     16838     16838     16841     16842
     16838     16841     16843     16838     16841     16844     16839     16838     16840
     16839     16838     16841     16840     16838     16841     16841     16844     16845
     16841     16844     16846     16841     16844     16847     16842     16841     16843
     16842     16841     16844     16843     16841     16844     16844     16847     16848
     16844     16847     16849     16845     16844     16846     16845     16844     16847
     16846     16844     16847     16847     16849     16850     16847     16849     16851
     16848     16847     16849     16849     16851     16852     16849     16851     16853
     16849     16851     16854     16850     16849     16851     16851     16854     16855
     16851     16854     16856     16851     16854     16857     16852     16851     16853
     16852     16851     16854     16853     16851     16854     16854     16857     16858
     16854     16857     16859     16854     16857     16860     16855     16854     16856
     16855     16854     16857     16856     16854     16857     16857     16860     16861
     16857     16860     16862     16857     16860     16863     16858     16857     16859
     16858     16857     16860     16859     16857     16860     16860     16863     16864
     16860     16863     16865     16860     16863     16866     16861     16860     16862
     16861     16860     16863     16862     16860     16863     16863     16866     16867
     16863     16866     16868     16863     16866     16869     16864     16863     16865
     16864     16863     16866     16865     16863     16866     16866     16869     16870
     16866     16869     16871     16866     16869     16872     16867     16866     16868
     16867     16866     16869     16868     16866     16869     16869     16872     16873
     16869     16872     16874     16869     16872     16875     16870     16869     16871
     16870     16869     16872     16871     16869     16872     16873     16872     16874
     16873     16872     16875     16874     16872     16875     16876     16879     16880
     16876     16879     16881     16876     16879     16882     16877     16876     16878
     16877     16876     16879     16878     16876     16879     16879     16882     16883
     16879     16882     16884     16879     16882     16885     16880     16879     16881
     16880     16879     16882     16881     16879     16882     16882     16885     16886
     16882     16885     16887     16882     16885     16888     16883     16882     16884
     16883     16882     16885     16884     16882     16885     16885     16888     16889
     16885     16888     16890     16885     16888     16891     16886     16885     16887
     16886     16885     16888     16887     16885     16888     16888     16891     16892
     16888     16891     16893     16888     16891     16894     16889     16888     16890
     16889     16888     16891     16890     16888     16891     16891     16894     16895
     16891     16894     16896     16892     16891     16893     16892     16891     16894
     16893     16891     16894     16894     16896     16897     16894     16896     16898
     16895     16894     16896     16896     16898     16899     16896     16898     16900
     16896     16898     16901     16897     16896     16898     16898     16901     16902
     16898     16901     16903     16898     16901     16904     16899     16898     16900
     16899     16898     16901     16900     16898     16901     16901     16904     16905
     16901     16904     16906     16901     16904     16907     16902     16901     16903
     16902     16901     16904     16903     16901     16904     16904     16907     16908
     16904     16907     16909     16904     16907     16910     16905     16904     16906
     16905     16904     16907     16906     16904     16907     16907     16910     16911
     16907     16910     16912     16907     16910     16913     16908     16907     16909
     16908     16907     16910     16909     16907     16910     16910     16913     16914
     16910     16913     16915     16910     16913     16916     16911     16910     16912
     16911     16910     16913     16912     16910     16913     16913     16916     16917
     16913     16916     16918     16913     16916     16919     16914     16913     16915
     16914     16913     16916     16915     16913     16916     16916     16919     16920
     16916     16919     16921     16916     16919     16922     16917     16916     16918
     16917     16916     16919     16918     16916     16919     16920     16919     16921
     16920     16919     16922     16921     16919     16922     16923     16924     16925
     16923     16924     16926     16923     16924     16939     16923     16927     16928
     16923     16927     16929     16923     16927     16930     16923     16931     16932
     16923     16931     16933     16923     16931     16934     16923     16935     16936
     16923     16935     16937     16923     16935     16938     16924     16923     16927
     16924     16923     16931     16924     16923     16935     16924     16939     16940
     16924     16939     16941     16924     16939     16945     16925     16924     16926
     16925     16924     16939     16926     16924     16939     16927     16923     16931
     16927     16923     16935     16928     16927     16929     16928     16927     16930
     16929     16927     16930     16931     16923     16935     16932     16931     16933
     16932     16931     16934     16933     16931     16934     16936     16935     16937
     16936     16935     16938     16937     16935     16938     16939     16945     16942
     16940     16939     16941     16940     16939     16945     16941     16939     16945
     16942     16946     16947     16943     16942     16944     16943     16942     16945
     16943     16942     16946     16944     16942     16945     16944     16942     16946
     16945     16942     16946     16946     16947     16948     16946     16947     16949
     16946     16947     16950     16947     16950     16951     16947     16950     16952
     16947     16950     16958     16948     16947     16949     16948     16947     16950
     16949     16947     16950     16950     16952     16953     16950     16958     16959
     16950     16958     16960     16950     16958     16961     16951     16950     16952
     16951     16950     16958     16952     16950     16958     16952     16953     16954
     16952     16953     16955     16953     16955     16956     16953     16955     16957
     16953     16955     16967     16954     16953     16955     16955     16967     16968
     16955     16967     16969     16955     16967     16970     16956     16955     16957
     16956     16955     16967     16957     16955     16967     16958     16961     16962
     16959     16958     16960     16959     16958     16961     16960     16958     16961
     16961     16962     16963     16961     16962     16964     16962     16964     16965
     16962     16964     16966     16962     16964     17014     16963     16962     16964
     16964     17014     17015     16964     17014     17016     16964     17014     17017
     16965     16964     16966     16965     16964     17014     16966     16964     17014
     16967     16970     16971     16967     16970     16972     16967     16970     16973
     16968     16967     16969     16968     16967     16970     16969     16967     16970
     16970     16973     16974     16970     16973     16975     16970     16973     16976
     16971     16970     16972     16971     16970     16973     16972     16970     16973
     16973     16976     16977     16973     16976     16978     16973     16976     16979
     16974     16973     16975     16974     16973     16976     16975     16973     16976
     16976     16979     16980     16976     16979     16981     16976     16979     16982
     16977     16976     16978     16977     16976     16979     16978     16976     16979
     16979     16982     16983     16979     16982     16984     16979     16982     16985
     16980     16979     16981     16980     16979     16982     16981     16979     16982
     16982     16985     16986     16982     16985     16987     16983     16982     16984
     16983     16982     16985     16984     16982     16985     16985     16987     16988
     16985     16987     16989     16986     16985     16987     16987     16989     16990
     16987     16989     16991     16987     16989     16992     16988     16987     16989
     16989     16992     16993     16989     16992     16994     16989     16992     16995
     16990     16989     16991     16990     16989     16992     16991     16989     16992
     16992     16995     16996     16992     16995     16997     16992     16995     16998
     16993     16992     16994     16993     16992     16995     16994     16992     16995
     16995     16998     16999     16995     16998     17000     16995     16998     17001
     16996     16995     16997     16996     16995     16998     16997     16995     16998
     16998     17001     17002     16998     17001     17003     16998     17001     17004
     16999     16998     17000     16999     16998     17001     17000     16998     17001
     17001     17004     17005     17001     17004     17006     17001     17004     17007
     17002     17001     17003     17002     17001     17004     17003     17001     17004
     17004     17007     17008     17004     17007     17009     17004     17007     17010
     17005     17004     17006     17005     17004     17007     17006     17004     17007
     17007     17010     17011     17007     17010     17012     17007     17010     17013
     17008     17007     17009     17008     17007     17010     17009     17007     17010
     17011     17010     17012     17011     17010     17013     17012     17010     17013
     17014     17017     17018     17014     17017     17019     17014     17017     17020
     17015     17014     17016     17015     17014     17017     17016     17014     17017
     17017     17020     17021     17017     17020     17022     17017     17020     17023
     17018     17017     17019     17018     17017     17020     17019     17017     17020
     17020     17023     17024     17020     17023     17025     17020     17023     17026
     17021     17020     17022     17021     17020     17023     17022     17020     17023
     17023     17026     17027     17023     17026     17028     17023     17026     17029
     17024     17023     17025     17024     17023     17026     17025     17023     17026
     17026     17029     17030     17026     17029     17031     17026     17029     17032
     17027     17026     17028     17027     17026     17029     17028     17026     17029
     17029     17032     17033     17029     17032     17034     17030     17029     17031
     17030     17029     17032     17031     17029     17032     17032     17034     17035
     17032     17034     17036     17033     17032     17034     17034     17036     17037
     17034     17036     17038     17034     17036     17039     17035     17034     17036
     17036     17039     17040     17036     17039     17041     17036     17039     17042
     17037     17036     17038     17037     17036     17039     17038     17036     17039
     17039     17042     17043     17039     17042     17044     17039     17042     17045
     17040     17039     17041     17040     17039     17042     17041     17039     17042
     17042     17045     17046     17042     17045     17047     17042     17045     17048
     17043     17042     17044     17043     17042     17045     17044     17042     17045
     17045     17048     17049     17045     17048     17050     17045     17048     17051
     17046     17045     17047     17046     17045     17048     17047     17045     17048
     17048     17051     17052     17048     17051     17053     17048     17051     17054
     17049     17048     17050     17049     17048     17051     17050     17048     17051
     17051     17054     17055     17051     17054     17056     17051     17054     17057
     17052     17051     17053     17052     17051     17054     17053     17051     17054
     17054     17057     17058     17054     17057     17059     17054     17057     17060
     17055     17054     17056     17055     17054     17057     17056     17054     17057
     17058     17057     17059     17058     17057     17060     17059     17057     17060
     17061     17062     17063     17061     17062     17064     17061     17062     17077
     17061     17065     17066     17061     17065     17067     17061     17065     17068
     17061     17069     17070     17061     17069     17071     17061     17069     17072
     17061     17073     17074     17061     17073     17075     17061     17073     17076
     17062     17061     17065     17062     17061     17069     17062     17061     17073
     17062     17077     17078     17062     17077     17079     17062     17077     17083
     17063     17062     17064     17063     17062     17077     17064     17062     17077
     17065     17061     17069     17065     17061     17073     17066     17065     17067
     17066     17065     17068     17067     17065     17068     17069     17061     17073
     17070     17069     17071     17070     17069     17072     17071     17069     17072
     17074     17073     17075     17074     17073     17076     17075     17073     17076
     17077     17083     17080     17078     17077     17079     17078     17077     17083
     17079     17077     17083     17080     17084     17085     17081     17080     17082
     17081     17080     17083     17081     17080     17084     17082     17080     17083
     17082     17080     17084     17083     17080     17084     17084     17085     17086
     17084     17085     17087     17084     17085     17088     17085     17088     17089
     17085     17088     17090     17085     17088     17096     17086     17085     17087
     17086     17085     17088     17087     17085     17088     17088     17090     17091
     17088     17096     17097     17088     17096     17098     17088     17096     17099
     17089     17088     17090     17089     17088     17096     17090     17088     17096
     17090     17091     17092     17090     17091     17093     17091     17093     17094
     17091     17093     17095     17091     17093     17105     17092     17091     17093
     17093     17105     17106     17093     17105     17107     17093     17105     17108
     17094     17093     17095     17094     17093     17105     17095     17093     17105
     17096     17099     17100     17097     17096     17098     17097     17096     17099
     17098     17096     17099     17099     17100     17101     17099     17100     17102
     17100     17102     17103     17100     17102     17104     17100     17102     17152
     17101     17100     17102     17102     17152     17153     17102     17152     17154
     17102     17152     17155     17103     17102     17104     17103     17102     17152
     17104     17102     17152     17105     17108     17109     17105     17108     17110
     17105     17108     17111     17106     17105     17107     17106     17105     17108
     17107     17105     17108     17108     17111     17112     17108     17111     17113
     17108     17111     17114     17109     17108     17110     17109     17108     17111
     17110     17108     17111     17111     17114     17115     17111     17114     17116
     17111     17114     17117     17112     17111     17113     17112     17111     17114
     17113     17111     17114     17114     17117     17118     17114     17117     17119
     17114     17117     17120     17115     17114     17116     17115     17114     17117
     17116     17114     17117     17117     17120     17121     17117     17120     17122
     17117     17120     17123     17118     17117     17119     17118     17117     17120
     17119     17117     17120     17120     17123     17124     17120     17123     17125
     17121     17120     17122     17121     17120     17123     17122     17120     17123
     17123     17125     17126     17123     17125     17127     17124     17123     17125
     17125     17127     17128     17125     17127     17129     17125     17127     17130
     17126     17125     17127     17127     17130     17131     17127     17130     17132
     17127     17130     17133     17128     17127     17129     17128     17127     17130
     17129     17127     17130     17130     17133     17134     17130     17133     17135
     17130     17133     17136     17131     17130     17132     17131     17130     17133
     17132     17130     17133     17133     17136     17137     17133     17136     17138
     17133     17136     17139     17134     17133     17135     17134     17133     17136
     17135     17133     17136     17136     17139     17140     17136     17139     17141
     17136     17139     17142     17137     17136     17138     17137     17136     17139
     17138     17136     17139     17139     17142     17143     17139     17142     17144
     17139     17142     17145     17140     17139     17141     17140     17139     17142
     17141     17139     17142     17142     17145     17146     17142     17145     17147
     17142     17145     17148     17143     17142     17144     17143     17142     17145
     17144     17142     17145     17145     17148     17149     17145     17148     17150
     17145     17148     17151     17146     17145     17147     17146     17145     17148
     17147     17145     17148     17149     17148     17150     17149     17148     17151
     17150     17148     17151     17152     17155     17156     17152     17155     17157
     17152     17155     17158     17153     17152     17154     17153     17152     17155
     17154     17152     17155     17155     17158     17159     17155     17158     17160
     17155     17158     17161     17156     17155     17157     17156     17155     17158
     17157     17155     17158     17158     17161     17162     17158     17161     17163
     17158     17161     17164     17159     17158     17160     17159     17158     17161
     17160     17158     17161     17161     17164     17165     17161     17164     17166
     17161     17164     17167     17162     17161     17163     17162     17161     17164
     17163     17161     17164     17164     17167     17168     17164     17167     17169
     17164     17167     17170     17165     17164     17166     17165     17164     17167
     17166     17164     17167     17167     17170     17171     17167     17170     17172
     17168     17167     17169     17168     17167     17170     17169     17167     17170
     17170     17172     17173     17170     17172     17174     17171     17170     17172
     17172     17174     17175     17172     17174     17176     17172     17174     17177
     17173     17172     17174     17174     17177     17178     17174     17177     17179
     17174     17177     17180     17175     17174     17176     17175     17174     17177
     17176     17174     17177     17177     17180     17181     17177     17180     17182
     17177     17180     17183     17178     17177     17179     17178     17177     17180
     17179     17177     17180     17180     17183     17184     17180     17183     17185
     17180     17183     17186     17181     17180     17182     17181     17180     17183
     17182     17180     17183     17183     17186     17187     17183     17186     17188
     17183     17186     17189     17184     17183     17185     17184     17183     17186
     17185     17183     17186     17186     17189     17190     17186     17189     17191
     17186     17189     17192     17187     17186     17188     17187     17186     17189
     17188     17186     17189     17189     17192     17193     17189     17192     17194
     17189     17192     17195     17190     17189     17191     17190     17189     17192
     17191     17189     17192     17192     17195     17196     17192     17195     17197
     17192     17195     17198     17193     17192     17194     17193     17192     17195
     17194     17192     17195     17196     17195     17197     17196     17195     17198
     17197     17195     17198     17199     17200     17201     17199     17200     17202
     17199     17200     17215     17199     17203     17204     17199     17203     17205
     17199     17203     17206     17199     17207     17208     17199     17207     17209
     17199     17207     17210     17199     17211     17212     17199     17211     17213
     17199     17211     17214     17200     17199     17203     17200     17199     17207
     17200     17199     17211     17200     17215     17216     17200     17215     17217
     17200     17215     17221     17201     17200     17202     17201     17200     17215
     17202     17200     17215     17203     17199     17207     17203     17199     17211
     17204     17203     17205     17204     17203     17206     17205     17203     17206
     17207     17199     17211     17208     17207     17209     17208     17207     17210
     17209     17207     17210     17212     17211     17213     17212     17211     17214
     17213     17211     17214     17215     17221     17218     17216     17215     17217
     17216     17215     17221     17217     17215     17221     17218     17222     17223
     17219     17218     17220     17219     17218     17221     17219     17218     17222
     17220     17218     17221     17220     17218     17222     17221     17218     17222
     17222     17223     17224     17222     17223     17225     17222     17223     17226
     17223     17226     17227     17223     17226     17228     17223     17226     17234
     17224     17223     17225     17224     17223     17226     17225     17223     17226
     17226     17228     17229     17226     17234     17235     17226     17234     17236
     17226     17234     17237     17227     17226     17228     17227     17226     17234
     17228     17226     17234     17228     17229     17230     17228     17229     17231
     17229     17231     17232     17229     17231     17233     17229     17231     17243
     17230     17229     17231     17231     17243     17244     17231     17243     17245
     17231     17243     17246     17232     17231     17233     17232     17231     17243
     17233     17231     17243     17234     17237     17238     17235     17234     17236
     17235     17234     17237     17236     17234     17237     17237     17238     17239
     17237     17238     17240     17238     17240     17241     17238     17240     17242
     17238     17240     17290     17239     17238     17240     17240     17290     17291
     17240     17290     17292     17240     17290     17293     17241     17240     17242
     17241     17240     17290     17242     17240     17290     17243     17246     17247
     17243     17246     17248     17243     17246     17249     17244     17243     17245
     17244     17243     17246     17245     17243     17246     17246     17249     17250
     17246     17249     17251     17246     17249     17252     17247     17246     17248
     17247     17246     17249     17248     17246     17249     17249     17252     17253
     17249     17252     17254     17249     17252     17255     17250     17249     17251
     17250     17249     17252     17251     17249     17252     17252     17255     17256
     17252     17255     17257     17252     17255     17258     17253     17252     17254
     17253     17252     17255     17254     17252     17255     17255     17258     17259
     17255     17258     17260     17255     17258     17261     17256     17255     17257
     17256     17255     17258     17257     17255     17258     17258     17261     17262
     17258     17261     17263     17259     17258     17260     17259     17258     17261
     17260     17258     17261     17261     17263     17264     17261     17263     17265
     17262     17261     17263     17263     17265     17266     17263     17265     17267
     17263     17265     17268     17264     17263     17265     17265     17268     17269
     17265     17268     17270     17265     17268     17271     17266     17265     17267
     17266     17265     17268     17267     17265     17268     17268     17271     17272
     17268     17271     17273     17268     17271     17274     17269     17268     17270
     17269     17268     17271     17270     17268     17271     17271     17274     17275
     17271     17274     17276     17271     17274     17277     17272     17271     17273
     17272     17271     17274     17273     17271     17274     17274     17277     17278
     17274     17277     17279     17274     17277     17280     17275     17274     17276
     17275     17274     17277     17276     17274     17277     17277     17280     17281
     17277     17280     17282     17277     17280     17283     17278     17277     17279
     17278     17277     17280     17279     17277     17280     17280     17283     17284
     17280     17283     17285     17280     17283     17286     17281     17280     17282
     17281     17280     17283     17282     17280     17283     17283     17286     17287
     17283     17286     17288     17283     17286     17289     17284     17283     17285
     17284     17283     17286     17285     17283     17286     17287     17286     17288
     17287     17286     17289     17288     17286     17289     17290     17293     17294
     17290     17293     17295     17290     17293     17296     17291     17290     17292
     17291     17290     17293     17292     17290     17293     17293     17296     17297
     17293     17296     17298     17293     17296     17299     17294     17293     17295
     17294     17293     17296     17295     17293     17296     17296     17299     17300
     17296     17299     17301     17296     17299     17302     17297     17296     17298
     17297     17296     17299     17298     17296     17299     17299     17302     17303
     17299     17302     17304     17299     17302     17305     17300     17299     17301
     17300     17299     17302     17301     17299     17302     17302     17305     17306
     17302     17305     17307     17302     17305     17308     17303     17302     17304
     17303     17302     17305     17304     17302     17305     17305     17308     17309
     17305     17308     17310     17306     17305     17307     17306     17305     17308
     17307     17305     17308     17308     17310     17311     17308     17310     17312
     17309     17308     17310     17310     17312     17313     17310     17312     17314
     17310     17312     17315     17311     17310     17312     17312     17315     17316
     17312     17315     17317     17312     17315     17318     17313     17312     17314
     17313     17312     17315     17314     17312     17315     17315     17318     17319
     17315     17318     17320     17315     17318     17321     17316     17315     17317
     17316     17315     17318     17317     17315     17318     17318     17321     17322
     17318     17321     17323     17318     17321     17324     17319     17318     17320
     17319     17318     17321     17320     17318     17321     17321     17324     17325
     17321     17324     17326     17321     17324     17327     17322     17321     17323
     17322     17321     17324     17323     17321     17324     17324     17327     17328
     17324     17327     17329     17324     17327     17330     17325     17324     17326
     17325     17324     17327     17326     17324     17327     17327     17330     17331
     17327     17330     17332     17327     17330     17333     17328     17327     17329
     17328     17327     17330     17329     17327     17330     17330     17333     17334
     17330     17333     17335     17330     17333     17336     17331     17330     17332
     17331     17330     17333     17332     17330     17333     17334     17333     17335
     17334     17333     17336     17335     17333     17336     17337     17338     17339
     17337     17338     17340     17337     17338     17353     17337     17341     17342
     17337     17341     17343     17337     17341     17344     17337     17345     17346
     17337     17345     17347     17337     17345     17348     17337     17349     17350
     17337     17349     17351     17337     17349     17352     17338     17337     17341
     17338     17337     17345     17338     17337     17349     17338     17353     17354
     17338     17353     17355     17338     17353     17359     17339     17338     17340
     17339     17338     17353     17340     17338     17353     17341     17337     17345
     17341     17337     17349     17342     17341     17343     17342     17341     17344
     17343     17341     17344     17345     17337     17349     17346     17345     17347
     17346     17345     17348     17347     17345     17348     17350     17349     17351
     17350     17349     17352     17351     17349     17352     17353     17359     17356
     17354     17353     17355     17354     17353     17359     17355     17353     17359
     17356     17360     17361     17357     17356     17358     17357     17356     17359
     17357     17356     17360     17358     17356     17359     17358     17356     17360
     17359     17356     17360     17360     17361     17362     17360     17361     17363
     17360     17361     17364     17361     17364     17365     17361     17364     17366
     17361     17364     17372     17362     17361     17363     17362     17361     17364
     17363     17361     17364     17364     17366     17367     17364     17372     17373
     17364     17372     17374     17364     17372     17375     17365     17364     17366
     17365     17364     17372     17366     17364     17372     17366     17367     17368
     17366     17367     17369     17367     17369     17370     17367     17369     17371
     17367     17369     17381     17368     17367     17369     17369     17381     17382
     17369     17381     17383     17369     17381     17384     17370     17369     17371
     17370     17369     17381     17371     17369     17381     17372     17375     17376
     17373     17372     17374     17373     17372     17375     17374     17372     17375
     17375     17376     17377     17375     17376     17378     17376     17378     17379
     17376     17378     17380     17376     17378     17428     17377     17376     17378
     17378     17428     17429     17378     17428     17430     17378     17428     17431
     17379     17378     17380     17379     17378     17428     17380     17378     17428
     17381     17384     17385     17381     17384     17386     17381     17384     17387
     17382     17381     17383     17382     17381     17384     17383     17381     17384
     17384     17387     17388     17384     17387     17389     17384     17387     17390
     17385     17384     17386     17385     17384     17387     17386     17384     17387
     17387     17390     17391     17387     17390     17392     17387     17390     17393
     17388     17387     17389     17388     17387     17390     17389     17387     17390
     17390     17393     17394     17390     17393     17395     17390     17393     17396
     17391     17390     17392     17391     17390     17393     17392     17390     17393
     17393     17396     17397     17393     17396     17398     17393     17396     17399
     17394     17393     17395     17394     17393     17396     17395     17393     17396
     17396     17399     17400     17396     17399     17401     17397     17396     17398
     17397     17396     17399     17398     17396     17399     17399     17401     17402
     17399     17401     17403     17400     17399     17401     17401     17403     17404
     17401     17403     17405     17401     17403     17406     17402     17401     17403
     17403     17406     17407     17403     17406     17408     17403     17406     17409
     17404     17403     17405     17404     17403     17406     17405     17403     17406
     17406     17409     17410     17406     17409     17411     17406     17409     17412
     17407     17406     17408     17407     17406     17409     17408     17406     17409
     17409     17412     17413     17409     17412     17414     17409     17412     17415
     17410     17409     17411     17410     17409     17412     17411     17409     17412
     17412     17415     17416     17412     17415     17417     17412     17415     17418
     17413     17412     17414     17413     17412     17415     17414     17412     17415
     17415     17418     17419     17415     17418     17420     17415     17418     17421
     17416     17415     17417     17416     17415     17418     17417     17415     17418
     17418     17421     17422     17418     17421     17423     17418     17421     17424
     17419     17418     17420     17419     17418     17421     17420     17418     17421
     17421     17424     17425     17421     17424     17426     17421     17424     17427
     17422     17421     17423     17422     17421     17424     17423     17421     17424
     17425     17424     17426     17425     17424     17427     17426     17424     17427
     17428     17431     17432     17428     17431     17433     17428     17431     17434
     17429     17428     17430     17429     17428     17431     17430     17428     17431
     17431     17434     17435     17431     17434     17436     17431     17434     17437
     17432     17431     17433     17432     17431     17434     17433     17431     17434
     17434     17437     17438     17434     17437     17439     17434     17437     17440
     17435     17434     17436     17435     17434     17437     17436     17434     17437
     17437     17440     17441     17437     17440     17442     17437     17440     17443
     17438     17437     17439     17438     17437     17440     17439     17437     17440
     17440     17443     17444     17440     17443     17445     17440     17443     17446
     17441     17440     17442     17441     17440     17443     17442     17440     17443
     17443     17446     17447     17443     17446     17448     17444     17443     17445
     17444     17443     17446     17445     17443     17446     17446     17448     17449
     17446     17448     17450     17447     17446     17448     17448     17450     17451
     17448     17450     17452     17448     17450     17453     17449     17448     17450
     17450     17453     17454     17450     17453     17455     17450     17453     17456
     17451     17450     17452     17451     17450     17453     17452     17450     17453
     17453     17456     17457     17453     17456     17458     17453     17456     17459
     17454     17453     17455     17454     17453     17456     17455     17453     17456
     17456     17459     17460     17456     17459     17461     17456     17459     17462
     17457     17456     17458     17457     17456     17459     17458     17456     17459
     17459     17462     17463     17459     17462     17464     17459     17462     17465
     17460     17459     17461     17460     17459     17462     17461     17459     17462
     17462     17465     17466     17462     17465     17467     17462     17465     17468
     17463     17462     17464     17463     17462     17465     17464     17462     17465
     17465     17468     17469     17465     17468     17470     17465     17468     17471
     17466     17465     17467     17466     17465     17468     17467     17465     17468
     17468     17471     17472     17468     17471     17473     17468     17471     17474
     17469     17468     17470     17469     17468     17471     17470     17468     17471
     17472     17471     17473     17472     17471     17474     17473     17471     17474
     17475     17476     17477     17475     17476     17478     17475     17476     17491
     17475     17479     17480     17475     17479     17481     17475     17479     17482
     17475     17483     17484     17475     17483     17485     17475     17483     17486
     17475     17487     17488     17475     17487     17489     17475     17487     17490
     17476     17475     17479     17476     17475     17483     17476     17475     17487
     17476     17491     17492     17476     17491     17493     17476     17491     17497
     17477     17476     17478     17477     17476     17491     17478     17476     17491
     17479     17475     17483     17479     17475     17487     17480     17479     17481
     17480     17479     17482     17481     17479     17482     17483     17475     17487
     17484     17483     17485     17484     17483     17486     17485     17483     17486
     17488     17487     17489     17488     17487     17490     17489     17487     17490
     17491     17497     17494     17492     17491     17493     17492     17491     17497
     17493     17491     17497     17494     17498     17499     17495     17494     17496
     17495     17494     17497     17495     17494     17498     17496     17494     17497
     17496     17494     17498     17497     17494     17498     17498     17499     17500
     17498     17499     17501     17498     17499     17502     17499     17502     17503
     17499     17502     17504     17499     17502     17510     17500     17499     17501
     17500     17499     17502     17501     17499     17502     17502     17504     17505
     17502     17510     17511     17502     17510     17512     17502     17510     17513
     17503     17502     17504     17503     17502     17510     17504     17502     17510
     17504     17505     17506     17504     17505     17507     17505     17507     17508
     17505     17507     17509     17505     17507     17519     17506     17505     17507
     17507     17519     17520     17507     17519     17521     17507     17519     17522
     17508     17507     17509     17508     17507     17519     17509     17507     17519
     17510     17513     17514     17511     17510     17512     17511     17510     17513
     17512     17510     17513     17513     17514     17515     17513     17514     17516
     17514     17516     17517     17514     17516     17518     17514     17516     17566
     17515     17514     17516     17516     17566     17567     17516     17566     17568
     17516     17566     17569     17517     17516     17518     17517     17516     17566
     17518     17516     17566     17519     17522     17523     17519     17522     17524
     17519     17522     17525     17520     17519     17521     17520     17519     17522
     17521     17519     17522     17522     17525     17526     17522     17525     17527
     17522     17525     17528     17523     17522     17524     17523     17522     17525
     17524     17522     17525     17525     17528     17529     17525     17528     17530
     17525     17528     17531     17526     17525     17527     17526     17525     17528
     17527     17525     17528     17528     17531     17532     17528     17531     17533
     17528     17531     17534     17529     17528     17530     17529     17528     17531
     17530     17528     17531     17531     17534     17535     17531     17534     17536
     17531     17534     17537     17532     17531     17533     17532     17531     17534
     17533     17531     17534     17534     17537     17538     17534     17537     17539
     17535     17534     17536     17535     17534     17537     17536     17534     17537
     17537     17539     17540     17537     17539     17541     17538     17537     17539
     17539     17541     17542     17539     17541     17543     17539     17541     17544
     17540     17539     17541     17541     17544     17545     17541     17544     17546
     17541     17544     17547     17542     17541     17543     17542     17541     17544
     17543     17541     17544     17544     17547     17548     17544     17547     17549
     17544     17547     17550     17545     17544     17546     17545     17544     17547
     17546     17544     17547     17547     17550     17551     17547     17550     17552
     17547     17550     17553     17548     17547     17549     17548     17547     17550
     17549     17547     17550     17550     17553     17554     17550     17553     17555
     17550     17553     17556     17551     17550     17552     17551     17550     17553
     17552     17550     17553     17553     17556     17557     17553     17556     17558
     17553     17556     17559     17554     17553     17555     17554     17553     17556
     17555     17553     17556     17556     17559     17560     17556     17559     17561
     17556     17559     17562     17557     17556     17558     17557     17556     17559
     17558     17556     17559     17559     17562     17563     17559     17562     17564
     17559     17562     17565     17560     17559     17561     17560     17559     17562
     17561     17559     17562     17563     17562     17564     17563     17562     17565
     17564     17562     17565     17566     17569     17570     17566     17569     17571
     17566     17569     17572     17567     17566     17568     17567     17566     17569
     17568     17566     17569     17569     17572     17573     17569     17572     17574
     17569     17572     17575     17570     17569     17571     17570     17569     17572
     17571     17569     17572     17572     17575     17576     17572     17575     17577
     17572     17575     17578     17573     17572     17574     17573     17572     17575
     17574     17572     17575     17575     17578     17579     17575     17578     17580
     17575     17578     17581     17576     17575     17577     17576     17575     17578
     17577     17575     17578     17578     17581     17582     17578     17581     17583
     17578     17581     17584     17579     17578     17580     17579     17578     17581
     17580     17578     17581     17581     17584     17585     17581     17584     17586
     17582     17581     17583     17582     17581     17584     17583     17581     17584
     17584     17586     17587     17584     17586     17588     17585     17584     17586
     17586     17588     17589     17586     17588     17590     17586     17588     17591
     17587     17586     17588     17588     17591     17592     17588     17591     17593
     17588     17591     17594     17589     17588     17590     17589     17588     17591
     17590     17588     17591     17591     17594     17595     17591     17594     17596
     17591     17594     17597     17592     17591     17593     17592     17591     17594
     17593     17591     17594     17594     17597     17598     17594     17597     17599
     17594     17597     17600     17595     17594     17596     17595     17594     17597
     17596     17594     17597     17597     17600     17601     17597     17600     17602
     17597     17600     17603     17598     17597     17599     17598     17597     17600
     17599     17597     17600     17600     17603     17604     17600     17603     17605
     17600     17603     17606     17601     17600     17602     17601     17600     17603
     17602     17600     17603     17603     17606     17607     17603     17606     17608
     17603     17606     17609     17604     17603     17605     17604     17603     17606
     17605     17603     17606     17606     17609     17610     17606     17609     17611
     17606     17609     17612     17607     17606     17608     17607     17606     17609
     17608     17606     17609     17610     17609     17611     17610     17609     17612
     17611     17609     17612     17613     17614     17615     17613     17614     17616
     17613     17614     17629     17613     17617     17618     17613     17617     17619
     17613     17617     17620     17613     17621     17622     17613     17621     17623
     17613     17621     17624     17613     17625     17626     17613     17625     17627
     17613     17625     17628     17614     17613     17617     17614     17613     17621
     17614     17613     17625     17614     17629     17630     17614     17629     17631
     17614     17629     17635     17615     17614     17616     17615     17614     17629
     17616     17614     17629     17617     17613     17621     17617     17613     17625
     17618     17617     17619     17618     17617     17620     17619     17617     17620
     17621     17613     17625     17622     17621     17623     17622     17621     17624
     17623     17621     17624     17626     17625     17627     17626     17625     17628
     17627     17625     17628     17629     17635     17632     17630     17629     17631
     17630     17629     17635     17631     17629     17635     17632     17636     17637
     17633     17632     17634     17633     17632     17635     17633     17632     17636
     17634     17632     17635     17634     17632     17636     17635     17632     17636
     17636     17637     17638     17636     17637     17639     17636     17637     17640
     17637     17640     17641     17637     17640     17642     17637     17640     17648
     17638     17637     17639     17638     17637     17640     17639     17637     17640
     17640     17642     17643     17640     17648     17649     17640     17648     17650
     17640     17648     17651     17641     17640     17642     17641     17640     17648
     17642     17640     17648     17642     17643     17644     17642     17643     17645
     17643     17645     17646     17643     17645     17647     17643     17645     17657
     17644     17643     17645     17645     17657     17658     17645     17657     17659
     17645     17657     17660     17646     17645     17647     17646     17645     17657
     17647     17645     17657     17648     17651     17652     17649     17648     17650
     17649     17648     17651     17650     17648     17651     17651     17652     17653
     17651     17652     17654     17652     17654     17655     17652     17654     17656
     17652     17654     17704     17653     17652     17654     17654     17704     17705
     17654     17704     17706     17654     17704     17707     17655     17654     17656
     17655     17654     17704     17656     17654     17704     17657     17660     17661
     17657     17660     17662     17657     17660     17663     17658     17657     17659
     17658     17657     17660     17659     17657     17660     17660     17663     17664
     17660     17663     17665     17660     17663     17666     17661     17660     17662
     17661     17660     17663     17662     17660     17663     17663     17666     17667
     17663     17666     17668     17663     17666     17669     17664     17663     17665
     17664     17663     17666     17665     17663     17666     17666     17669     17670
     17666     17669     17671     17666     17669     17672     17667     17666     17668
     17667     17666     17669     17668     17666     17669     17669     17672     17673
     17669     17672     17674     17669     17672     17675     17670     17669     17671
     17670     17669     17672     17671     17669     17672     17672     17675     17676
     17672     17675     17677     17673     17672     17674     17673     17672     17675
     17674     17672     17675     17675     17677     17678     17675     17677     17679
     17676     17675     17677     17677     17679     17680     17677     17679     17681
     17677     17679     17682     17678     17677     17679     17679     17682     17683
     17679     17682     17684     17679     17682     17685     17680     17679     17681
     17680     17679     17682     17681     17679     17682     17682     17685     17686
     17682     17685     17687     17682     17685     17688     17683     17682     17684
     17683     17682     17685     17684     17682     17685     17685     17688     17689
     17685     17688     17690     17685     17688     17691     17686     17685     17687
     17686     17685     17688     17687     17685     17688     17688     17691     17692
     17688     17691     17693     17688     17691     17694     17689     17688     17690
     17689     17688     17691     17690     17688     17691     17691     17694     17695
     17691     17694     17696     17691     17694     17697     17692     17691     17693
     17692     17691     17694     17693     17691     17694     17694     17697     17698
     17694     17697     17699     17694     17697     17700     17695     17694     17696
     17695     17694     17697     17696     17694     17697     17697     17700     17701
     17697     17700     17702     17697     17700     17703     17698     17697     17699
     17698     17697     17700     17699     17697     17700     17701     17700     17702
     17701     17700     17703     17702     17700     17703     17704     17707     17708
     17704     17707     17709     17704     17707     17710     17705     17704     17706
     17705     17704     17707     17706     17704     17707     17707     17710     17711
     17707     17710     17712     17707     17710     17713     17708     17707     17709
     17708     17707     17710     17709     17707     17710     17710     17713     17714
     17710     17713     17715     17710     17713     17716     17711     17710     17712
     17711     17710     17713     17712     17710     17713     17713     17716     17717
     17713     17716     17718     17713     17716     17719     17714     17713     17715
     17714     17713     17716     17715     17713     17716     17716     17719     17720
     17716     17719     17721     17716     17719     17722     17717     17716     17718
     17717     17716     17719     17718     17716     17719     17719     17722     17723
     17719     17722     17724     17720     17719     17721     17720     17719     17722
     17721     17719     17722     17722     17724     17725     17722     17724     17726
     17723     17722     17724     17724     17726     17727     17724     17726     17728
     17724     17726     17729     17725     17724     17726     17726     17729     17730
     17726     17729     17731     17726     17729     17732     17727     17726     17728
     17727     17726     17729     17728     17726     17729     17729     17732     17733
     17729     17732     17734     17729     17732     17735     17730     17729     17731
     17730     17729     17732     17731     17729     17732     17732     17735     17736
     17732     17735     17737     17732     17735     17738     17733     17732     17734
     17733     17732     17735     17734     17732     17735     17735     17738     17739
     17735     17738     17740     17735     17738     17741     17736     17735     17737
     17736     17735     17738     17737     17735     17738     17738     17741     17742
     17738     17741     17743     17738     17741     17744     17739     17738     17740
     17739     17738     17741     17740     17738     17741     17741     17744     17745
     17741     17744     17746     17741     17744     17747     17742     17741     17743
     17742     17741     17744     17743     17741     17744     17744     17747     17748
     17744     17747     17749     17744     17747     17750     17745     17744     17746
     17745     17744     17747     17746     17744     17747     17748     17747     17749
     17748     17747     17750     17749     17747     17750     17751     17752     17753
     17751     17752     17754     17751     17752     17767     17751     17755     17756
     17751     17755     17757     17751     17755     17758     17751     17759     17760
     17751     17759     17761     17751     17759     17762     17751     17763     17764
     17751     17763     17765     17751     17763     17766     17752     17751     17755
     17752     17751     17759     17752     17751     17763     17752     17767     17768
     17752     17767     17769     17752     17767     17773     17753     17752     17754
     17753     17752     17767     17754     17752     17767     17755     17751     17759
     17755     17751     17763     17756     17755     17757     17756     17755     17758
     17757     17755     17758     17759     17751     17763     17760     17759     17761
     17760     17759     17762     17761     17759     17762     17764     17763     17765
     17764     17763     17766     17765     17763     17766     17767     17773     17770
     17768     17767     17769     17768     17767     17773     17769     17767     17773
     17770     17774     17775     17771     17770     17772     17771     17770     17773
     17771     17770     17774     17772     17770     17773     17772     17770     17774
     17773     17770     17774     17774     17775     17776     17774     17775     17777
     17774     17775     17778     17775     17778     17779     17775     17778     17780
     17775     17778     17786     17776     17775     17777     17776     17775     17778
     17777     17775     17778     17778     17780     17781     17778     17786     17787
     17778     17786     17788     17778     17786     17789     17779     17778     17780
     17779     17778     17786     17780     17778     17786     17780     17781     17782
     17780     17781     17783     17781     17783     17784     17781     17783     17785
     17781     17783     17795     17782     17781     17783     17783     17795     17796
     17783     17795     17797     17783     17795     17798     17784     17783     17785
     17784     17783     17795     17785     17783     17795     17786     17789     17790
     17787     17786     17788     17787     17786     17789     17788     17786     17789
     17789     17790     17791     17789     17790     17792     17790     17792     17793
     17790     17792     17794     17790     17792     17842     17791     17790     17792
     17792     17842     17843     17792     17842     17844     17792     17842     17845
     17793     17792     17794     17793     17792     17842     17794     17792     17842
     17795     17798     17799     17795     17798     17800     17795     17798     17801
     17796     17795     17797     17796     17795     17798     17797     17795     17798
     17798     17801     17802     17798     17801     17803     17798     17801     17804
     17799     17798     17800     17799     17798     17801     17800     17798     17801
     17801     17804     17805     17801     17804     17806     17801     17804     17807
     17802     17801     17803     17802     17801     17804     17803     17801     17804
     17804     17807     17808     17804     17807     17809     17804     17807     17810
     17805     17804     17806     17805     17804     17807     17806     17804     17807
     17807     17810     17811     17807     17810     17812     17807     17810     17813
     17808     17807     17809     17808     17807     17810     17809     17807     17810
     17810     17813     17814     17810     17813     17815     17811     17810     17812
     17811     17810     17813     17812     17810     17813     17813     17815     17816
     17813     17815     17817     17814     17813     17815     17815     17817     17818
     17815     17817     17819     17815     17817     17820     17816     17815     17817
     17817     17820     17821     17817     17820     17822     17817     17820     17823
     17818     17817     17819     17818     17817     17820     17819     17817     17820
     17820     17823     17824     17820     17823     17825     17820     17823     17826
     17821     17820     17822     17821     17820     17823     17822     17820     17823
     17823     17826     17827     17823     17826     17828     17823     17826     17829
     17824     17823     17825     17824     17823     17826     17825     17823     17826
     17826     17829     17830     17826     17829     17831     17826     17829     17832
     17827     17826     17828     17827     17826     17829     17828     17826     17829
     17829     17832     17833     17829     17832     17834     17829     17832     17835
     17830     17829     17831     17830     17829     17832     17831     17829     17832
     17832     17835     17836     17832     17835     17837     17832     17835     17838
     17833     17832     17834     17833     17832     17835     17834     17832     17835
     17835     17838     17839     17835     17838     17840     17835     17838     17841
     17836     17835     17837     17836     17835     17838     17837     17835     17838
     17839     17838     17840     17839     17838     17841     17840     17838     17841
     17842     17845     17846     17842     17845     17847     17842     17845     17848
     17843     17842     17844     17843     17842     17845     17844     17842     17845
     17845     17848     17849     17845     17848     17850     17845     17848     17851
     17846     17845     17847     17846     17845     17848     17847     17845     17848
     17848     17851     17852     17848     17851     17853     17848     17851     17854
     17849     17848     17850     17849     17848     17851     17850     17848     17851
     17851     17854     17855     17851     17854     17856     17851     17854     17857
     17852     17851     17853     17852     17851     17854     17853     17851     17854
     17854     17857     17858     17854     17857     17859     17854     17857     17860
     17855     17854     17856     17855     17854     17857     17856     17854     17857
     17857     17860     17861     17857     17860     17862     17858     17857     17859
     17858     17857     17860     17859     17857     17860     17860     17862     17863
     17860     17862     17864     17861     17860     17862     17862     17864     17865
     17862     17864     17866     17862     17864     17867     17863     17862     17864
     17864     17867     17868     17864     17867     17869     17864     17867     17870
     17865     17864     17866     17865     17864     17867     17866     17864     17867
     17867     17870     17871     17867     17870     17872     17867     17870     17873
     17868     17867     17869     17868     17867     17870     17869     17867     17870
     17870     17873     17874     17870     17873     17875     17870     17873     17876
     17871     17870     17872     17871     17870     17873     17872     17870     17873
     17873     17876     17877     17873     17876     17878     17873     17876     17879
     17874     17873     17875     17874     17873     17876     17875     17873     17876
     17876     17879     17880     17876     17879     17881     17876     17879     17882
     17877     17876     17878     17877     17876     17879     17878     17876     17879
     17879     17882     17883     17879     17882     17884     17879     17882     17885
     17880     17879     17881     17880     17879     17882     17881     17879     17882
     17882     17885     17886     17882     17885     17887     17882     17885     17888
     17883     17882     17884     17883     17882     17885     17884     17882     17885
     17886     17885     17887     17886     17885     17888     17887     17885     17888
     17889     17890     17891     17889     17890     17892     17889     17890     17905
     17889     17893     17894     17889     17893     17895     17889     17893     17896
     17889     17897     17898     17889     17897     17899     17889     17897     17900
     17889     17901     17902     17889     17901     17903     17889     17901     17904
     17890     17889     17893     17890     17889     17897     17890     17889     17901
     17890     17905     17906     17890     17905     17907     17890     17905     17911
     17891     17890     17892     17891     17890     17905     17892     17890     17905
     17893     17889     17897     17893     17889     17901     17894     17893     17895
     17894     17893     17896     17895     17893     17896     17897     17889     17901
     17898     17897     17899     17898     17897     17900     17899     17897     17900
     17902     17901     17903     17902     17901     17904     17903     17901     17904
     17905     17911     17908     17906     17905     17907     17906     17905     17911
     17907     17905     17911     17908     17912     17913     17909     17908     17910
     17909     17908     17911     17909     17908     17912     17910     17908     17911
     17910     17908     17912     17911     17908     17912     17912     17913     17914
     17912     17913     17915     17912     17913     17916     17913     17916     17917
     17913     17916     17918     17913     17916     17924     17914     17913     17915
     17914     17913     17916     17915     17913     17916     17916     17918     17919
     17916     17924     17925     17916     17924     17926     17916     17924     17927
     17917     17916     17918     17917     17916     17924     17918     17916     17924
     17918     17919     17920     17918     17919     17921     17919     17921     17922
     17919     17921     17923     17919     17921     17933     17920     17919     17921
     17921     17933     17934     17921     17933     17935     17921     17933     17936
     17922     17921     17923     17922     17921     17933     17923     17921     17933
     17924     17927     17928     17925     17924     17926     17925     17924     17927
     17926     17924     17927     17927     17928     17929     17927     17928     17930
     17928     17930     17931     17928     17930     17932     17928     17930     17980
     17929     17928     17930     17930     17980     17981     17930     17980     17982
     17930     17980     17983     17931     17930     17932     17931     17930     17980
     17932     17930     17980     17933     17936     17937     17933     17936     17938
     17933     17936     17939     17934     17933     17935     17934     17933     17936
     17935     17933     17936     17936     17939     17940     17936     17939     17941
     17936     17939     17942     17937     17936     17938     17937     17936     17939
     17938     17936     17939     17939     17942     17943     17939     17942     17944
     17939     17942     17945     17940     17939     17941     17940     17939     17942
     17941     17939     17942     17942     17945     17946     17942     17945     17947
     17942     17945     17948     17943     17942     17944     17943     17942     17945
     17944     17942     17945     17945     17948     17949     17945     17948     17950
     17945     17948     17951     17946     17945     17947     17946     17945     17948
     17947     17945     17948     17948     17951     17952     17948     17951     17953
     17949     17948     17950     17949     17948     17951     17950     17948     17951
     17951     17953     17954     17951     17953     17955     17952     17951     17953
     17953     17955     17956     17953     17955     17957     17953     17955     17958
     17954     17953     17955     17955     17958     17959     17955     17958     17960
     17955     17958     17961     17956     17955     17957     17956     17955     17958
     17957     17955     17958     17958     17961     17962     17958     17961     17963
     17958     17961     17964     17959     17958     17960     17959     17958     17961
     17960     17958     17961     17961     17964     17965     17961     17964     17966
     17961     17964     17967     17962     17961     17963     17962     17961     17964
     17963     17961     17964     17964     17967     17968     17964     17967     17969
     17964     17967     17970     17965     17964     17966     17965     17964     17967
     17966     17964     17967     17967     17970     17971     17967     17970     17972
     17967     17970     17973     17968     17967     17969     17968     17967     17970
     17969     17967     17970     17970     17973     17974     17970     17973     17975
     17970     17973     17976     17971     17970     17972     17971     17970     17973
     17972     17970     17973     17973     17976     17977     17973     17976     17978
     17973     17976     17979     17974     17973     17975     17974     17973     17976
     17975     17973     17976     17977     17976     17978     17977     17976     17979
     17978     17976     17979     17980     17983     17984     17980     17983     17985
     17980     17983     17986     17981     17980     17982     17981     17980     17983
     17982     17980     17983     17983     17986     17987     17983     17986     17988
     17983     17986     17989     17984     17983     17985     17984     17983     17986
     17985     17983     17986     17986     17989     17990     17986     17989     17991
     17986     17989     17992     17987     17986     17988     17987     17986     17989
     17988     17986     17989     17989     17992     17993     17989     17992     17994
     17989     17992     17995     17990     17989     17991     17990     17989     17992
     17991     17989     17992     17992     17995     17996     17992     17995     17997
     17992     17995     17998     17993     17992     17994     17993     17992     17995
     17994     17992     17995     17995     17998     17999     17995     17998     18000
     17996     17995     17997     17996     17995     17998     17997     17995     17998
     17998     18000     18001     17998     18000     18002     17999     17998     18000
     18000     18002     18003     18000     18002     18004     18000     18002     18005
     18001     18000     18002     18002     18005     18006     18002     18005     18007
     18002     18005     18008     18003     18002     18004     18003     18002     18005
     18004     18002     18005     18005     18008     18009     18005     18008     18010
     18005     18008     18011     18006     18005     18007     18006     18005     18008
     18007     18005     18008     18008     18011     18012     18008     18011     18013
     18008     18011     18014     18009     18008     18010     18009     18008     18011
     18010     18008     18011     18011     18014     18015     18011     18014     18016
     18011     18014     18017     18012     18011     18013     18012     18011     18014
     18013     18011     18014     18014     18017     18018     18014     18017     18019
     18014     18017     18020     18015     18014     18016     18015     18014     18017
     18016     18014     18017     18017     18020     18021     18017     18020     18022
     18017     18020     18023     18018     18017     18019     18018     18017     18020
     18019     18017     18020     18020     18023     18024     18020     18023     18025
     18020     18023     18026     18021     18020     18022     18021     18020     18023
     18022     18020     18023     18024     18023     18025     18024     18023     18026
     18025     18023     18026     18027     18028     18029     18027     18028     18030
     18027     18028     18043     18027     18031     18032     18027     18031     18033
     18027     18031     18034     18027     18035     18036     18027     18035     18037
     18027     18035     18038     18027     18039     18040     18027     18039     18041
     18027     18039     18042     18028     18027     18031     18028     18027     18035
     18028     18027     18039     18028     18043     18044     18028     18043     18045
     18028     18043     18049     18029     18028     18030     18029     18028     18043
     18030     18028     18043     18031     18027     18035     18031     18027     18039
     18032     18031     18033     18032     18031     18034     18033     18031     18034
     18035     18027     18039     18036     18035     18037     18036     18035     18038
     18037     18035     18038     18040     18039     18041     18040     18039     18042
     18041     18039     18042     18043     18049     18046     18044     18043     18045
     18044     18043     18049     18045     18043     18049     18046     18050     18051
     18047     18046     18048     18047     18046     18049     18047     18046     18050
     18048     18046     18049     18048     18046     18050     18049     18046     18050
     18050     18051     18052     18050     18051     18053     18050     18051     18054
     18051     18054     18055     18051     18054     18056     18051     18054     18062
     18052     18051     18053     18052     18051     18054     18053     18051     18054
     18054     18056     18057     18054     18062     18063     18054     18062     18064
     18054     18062     18065     18055     18054     18056     18055     18054     18062
     18056     18054     18062     18056     18057     18058     18056     18057     18059
     18057     18059     18060     18057     18059     18061     18057     18059     18071
     18058     18057     18059     18059     18071     18072     18059     18071     18073
     18059     18071     18074     18060     18059     18061     18060     18059     18071
     18061     18059     18071     18062     18065     18066     18063     18062     18064
     18063     18062     18065     18064     18062     18065     18065     18066     18067
     18065     18066     18068     18066     18068     18069     18066     18068     18070
     18066     18068     18118     18067     18066     18068     18068     18118     18119
     18068     18118     18120     18068     18118     18121     18069     18068     18070
     18069     18068     18118     18070     18068     18118     18071     18074     18075
     18071     18074     18076     18071     18074     18077     18072     18071     18073
     18072     18071     18074     18073     18071     18074     18074     18077     18078
     18074     18077     18079     18074     18077     18080     18075     18074     18076
     18075     18074     18077     18076     18074     18077     18077     18080     18081
     18077     18080     18082     18077     18080     18083     18078     18077     18079
     18078     18077     18080     18079     18077     18080     18080     18083     18084
     18080     18083     18085     18080     18083     18086     18081     18080     18082
     18081     18080     18083     18082     18080     18083     18083     18086     18087
     18083     18086     18088     18083     18086     18089     18084     18083     18085
     18084     18083     18086     18085     18083     18086     18086     18089     18090
     18086     18089     18091     18087     18086     18088     18087     18086     18089
     18088     18086     18089     18089     18091     18092     18089     18091     18093
     18090     18089     18091     18091     18093     18094     18091     18093     18095
     18091     18093     18096     18092     18091     18093     18093     18096     18097
     18093     18096     18098     18093     18096     18099     18094     18093     18095
     18094     18093     18096     18095     18093     18096     18096     18099     18100
     18096     18099     18101     18096     18099     18102     18097     18096     18098
     18097     18096     18099     18098     18096     18099     18099     18102     18103
     18099     18102     18104     18099     18102     18105     18100     18099     18101
     18100     18099     18102     18101     18099     18102     18102     18105     18106
     18102     18105     18107     18102     18105     18108     18103     18102     18104
     18103     18102     18105     18104     18102     18105     18105     18108     18109
     18105     18108     18110     18105     18108     18111     18106     18105     18107
     18106     18105     18108     18107     18105     18108     18108     18111     18112
     18108     18111     18113     18108     18111     18114     18109     18108     18110
     18109     18108     18111     18110     18108     18111     18111     18114     18115
     18111     18114     18116     18111     18114     18117     18112     18111     18113
     18112     18111     18114     18113     18111     18114     18115     18114     18116
     18115     18114     18117     18116     18114     18117     18118     18121     18122
     18118     18121     18123     18118     18121     18124     18119     18118     18120
     18119     18118     18121     18120     18118     18121     18121     18124     18125
     18121     18124     18126     18121     18124     18127     18122     18121     18123
     18122     18121     18124     18123     18121     18124     18124     18127     18128
     18124     18127     18129     18124     18127     18130     18125     18124     18126
     18125     18124     18127     18126     18124     18127     18127     18130     18131
     18127     18130     18132     18127     18130     18133     18128     18127     18129
     18128     18127     18130     18129     18127     18130     18130     18133     18134
     18130     18133     18135     18130     18133     18136     18131     18130     18132
     18131     18130     18133     18132     18130     18133     18133     18136     18137
     18133     18136     18138     18134     18133     18135     18134     18133     18136
     18135     18133     18136     18136     18138     18139     18136     18138     18140
     18137     18136     18138     18138     18140     18141     18138     18140     18142
     18138     18140     18143     18139     18138     18140     18140     18143     18144
     18140     18143     18145     18140     18143     18146     18141     18140     18142
     18141     18140     18143     18142     18140     18143     18143     18146     18147
     18143     18146     18148     18143     18146     18149     18144     18143     18145
     18144     18143     18146     18145     18143     18146     18146     18149     18150
     18146     18149     18151     18146     18149     18152     18147     18146     18148
     18147     18146     18149     18148     18146     18149     18149     18152     18153
     18149     18152     18154     18149     18152     18155     18150     18149     18151
     18150     18149     18152     18151     18149     18152     18152     18155     18156
     18152     18155     18157     18152     18155     18158     18153     18152     18154
     18153     18152     18155     18154     18152     18155     18155     18158     18159
     18155     18158     18160     18155     18158     18161     18156     18155     18157
     18156     18155     18158     18157     18155     18158     18158     18161     18162
     18158     18161     18163     18158     18161     18164     18159     18158     18160
     18159     18158     18161     18160     18158     18161     18162     18161     18163
     18162     18161     18164     18163     18161     18164     18165     18166     18167
     18165     18166     18168     18165     18166     18181     18165     18169     18170
     18165     18169     18171     18165     18169     18172     18165     18173     18174
     18165     18173     18175     18165     18173     18176     18165     18177     18178
     18165     18177     18179     18165     18177     18180     18166     18165     18169
     18166     18165     18173     18166     18165     18177     18166     18181     18182
     18166     18181     18183     18166     18181     18187     18167     18166     18168
     18167     18166     18181     18168     18166     18181     18169     18165     18173
     18169     18165     18177     18170     18169     18171     18170     18169     18172
     18171     18169     18172     18173     18165     18177     18174     18173     18175
     18174     18173     18176     18175     18173     18176     18178     18177     18179
     18178     18177     18180     18179     18177     18180     18181     18187     18184
     18182     18181     18183     18182     18181     18187     18183     18181     18187
     18184     18188     18189     18185     18184     18186     18185     18184     18187
     18185     18184     18188     18186     18184     18187     18186     18184     18188
     18187     18184     18188     18188     18189     18190     18188     18189     18191
     18188     18189     18192     18189     18192     18193     18189     18192     18194
     18189     18192     18200     18190     18189     18191     18190     18189     18192
     18191     18189     18192     18192     18194     18195     18192     18200     18201
     18192     18200     18202     18192     18200     18203     18193     18192     18194
     18193     18192     18200     18194     18192     18200     18194     18195     18196
     18194     18195     18197     18195     18197     18198     18195     18197     18199
     18195     18197     18209     18196     18195     18197     18197     18209     18210
     18197     18209     18211     18197     18209     18212     18198     18197     18199
     18198     18197     18209     18199     18197     18209     18200     18203     18204
     18201     18200     18202     18201     18200     18203     18202     18200     18203
     18203     18204     18205     18203     18204     18206     18204     18206     18207
     18204     18206     18208     18204     18206     18256     18205     18204     18206
     18206     18256     18257     18206     18256     18258     18206     18256     18259
     18207     18206     18208     18207     18206     18256     18208     18206     18256
     18209     18212     18213     18209     18212     18214     18209     18212     18215
     18210     18209     18211     18210     18209     18212     18211     18209     18212
     18212     18215     18216     18212     18215     18217     18212     18215     18218
     18213     18212     18214     18213     18212     18215     18214     18212     18215
     18215     18218     18219     18215     18218     18220     18215     18218     18221
     18216     18215     18217     18216     18215     18218     18217     18215     18218
     18218     18221     18222     18218     18221     18223     18218     18221     18224
     18219     18218     18220     18219     18218     18221     18220     18218     18221
     18221     18224     18225     18221     18224     18226     18221     18224     18227
     18222     18221     18223     18222     18221     18224     18223     18221     18224
     18224     18227     18228     18224     18227     18229     18225     18224     18226
     18225     18224     18227     18226     18224     18227     18227     18229     18230
     18227     18229     18231     18228     18227     18229     18229     18231     18232
     18229     18231     18233     18229     18231     18234     18230     18229     18231
     18231     18234     18235     18231     18234     18236     18231     18234     18237
     18232     18231     18233     18232     18231     18234     18233     18231     18234
     18234     18237     18238     18234     18237     18239     18234     18237     18240
     18235     18234     18236     18235     18234     18237     18236     18234     18237
     18237     18240     18241     18237     18240     18242     18237     18240     18243
     18238     18237     18239     18238     18237     18240     18239     18237     18240
     18240     18243     18244     18240     18243     18245     18240     18243     18246
     18241     18240     18242     18241     18240     18243     18242     18240     18243
     18243     18246     18247     18243     18246     18248     18243     18246     18249
     18244     18243     18245     18244     18243     18246     18245     18243     18246
     18246     18249     18250     18246     18249     18251     18246     18249     18252
     18247     18246     18248     18247     18246     18249     18248     18246     18249
     18249     18252     18253     18249     18252     18254     18249     18252     18255
     18250     18249     18251     18250     18249     18252     18251     18249     18252
     18253     18252     18254     18253     18252     18255     18254     18252     18255
     18256     18259     18260     18256     18259     18261     18256     18259     18262
     18257     18256     18258     18257     18256     18259     18258     18256     18259
     18259     18262     18263     18259     18262     18264     18259     18262     18265
     18260     18259     18261     18260     18259     18262     18261     18259     18262
     18262     18265     18266     18262     18265     18267     18262     18265     18268
     18263     18262     18264     18263     18262     18265     18264     18262     18265
     18265     18268     18269     18265     18268     18270     18265     18268     18271
     18266     18265     18267     18266     18265     18268     18267     18265     18268
     18268     18271     18272     18268     18271     18273     18268     18271     18274
     18269     18268     18270     18269     18268     18271     18270     18268     18271
     18271     18274     18275     18271     18274     18276     18272     18271     18273
     18272     18271     18274     18273     18271     18274     18274     18276     18277
     18274     18276     18278     18275     18274     18276     18276     18278     18279
     18276     18278     18280     18276     18278     18281     18277     18276     18278
     18278     18281     18282     18278     18281     18283     18278     18281     18284
     18279     18278     18280     18279     18278     18281     18280     18278     18281
     18281     18284     18285     18281     18284     18286     18281     18284     18287
     18282     18281     18283     18282     18281     18284     18283     18281     18284
     18284     18287     18288     18284     18287     18289     18284     18287     18290
     18285     18284     18286     18285     18284     18287     18286     18284     18287
     18287     18290     18291     18287     18290     18292     18287     18290     18293
     18288     18287     18289     18288     18287     18290     18289     18287     18290
     18290     18293     18294     18290     18293     18295     18290     18293     18296
     18291     18290     18292     18291     18290     18293     18292     18290     18293
     18293     18296     18297     18293     18296     18298     18293     18296     18299
     18294     18293     18295     18294     18293     18296     18295     18293     18296
     18296     18299     18300     18296     18299     18301     18296     18299     18302
     18297     18296     18298     18297     18296     18299     18298     18296     18299
     18300     18299     18301     18300     18299     18302     18301     18299     18302
     18303     18304     18305     18303     18304     18306     18303     18304     18319
     18303     18307     18308     18303     18307     18309     18303     18307     18310
     18303     18311     18312     18303     18311     18313     18303     18311     18314
     18303     18315     18316     18303     18315     18317     18303     18315     18318
     18304     18303     18307     18304     18303     18311     18304     18303     18315
     18304     18319     18320     18304     18319     18321     18304     18319     18325
     18305     18304     18306     18305     18304     18319     18306     18304     18319
     18307     18303     18311     18307     18303     18315     18308     18307     18309
     18308     18307     18310     18309     18307     18310     18311     18303     18315
     18312     18311     18313     18312     18311     18314     18313     18311     18314
     18316     18315     18317     18316     18315     18318     18317     18315     18318
     18319     18325     18322     18320     18319     18321     18320     18319     18325
     18321     18319     18325     18322     18326     18327     18323     18322     18324
     18323     18322     18325     18323     18322     18326     18324     18322     18325
     18324     18322     18326     18325     18322     18326     18326     18327     18328
     18326     18327     18329     18326     18327     18330     18327     18330     18331
     18327     18330     18332     18327     18330     18338     18328     18327     18329
     18328     18327     18330     18329     18327     18330     18330     18332     18333
     18330     18338     18339     18330     18338     18340     18330     18338     18341
     18331     18330     18332     18331     18330     18338     18332     18330     18338
     18332     18333     18334     18332     18333     18335     18333     18335     18336
     18333     18335     18337     18333     18335     18347     18334     18333     18335
     18335     18347     18348     18335     18347     18349     18335     18347     18350
     18336     18335     18337     18336     18335     18347     18337     18335     18347
     18338     18341     18342     18339     18338     18340     18339     18338     18341
     18340     18338     18341     18341     18342     18343     18341     18342     18344
     18342     18344     18345     18342     18344     18346     18342     18344     18394
     18343     18342     18344     18344     18394     18395     18344     18394     18396
     18344     18394     18397     18345     18344     18346     18345     18344     18394
     18346     18344     18394     18347     18350     18351     18347     18350     18352
     18347     18350     18353     18348     18347     18349     18348     18347     18350
     18349     18347     18350     18350     18353     18354     18350     18353     18355
     18350     18353     18356     18351     18350     18352     18351     18350     18353
     18352     18350     18353     18353     18356     18357     18353     18356     18358
     18353     18356     18359     18354     18353     18355     18354     18353     18356
     18355     18353     18356     18356     18359     18360     18356     18359     18361
     18356     18359     18362     18357     18356     18358     18357     18356     18359
     18358     18356     18359     18359     18362     18363     18359     18362     18364
     18359     18362     18365     18360     18359     18361     18360     18359     18362
     18361     18359     18362     18362     18365     18366     18362     18365     18367
     18363     18362     18364     18363     18362     18365     18364     18362     18365
     18365     18367     18368     18365     18367     18369     18366     18365     18367
     18367     18369     18370     18367     18369     18371     18367     18369     18372
     18368     18367     18369     18369     18372     18373     18369     18372     18374
     18369     18372     18375     18370     18369     18371     18370     18369     18372
     18371     18369     18372     18372     18375     18376     18372     18375     18377
     18372     18375     18378     18373     18372     18374     18373     18372     18375
     18374     18372     18375     18375     18378     18379     18375     18378     18380
     18375     18378     18381     18376     18375     18377     18376     18375     18378
     18377     18375     18378     18378     18381     18382     18378     18381     18383
     18378     18381     18384     18379     18378     18380     18379     18378     18381
     18380     18378     18381     18381     18384     18385     18381     18384     18386
     18381     18384     18387     18382     18381     18383     18382     18381     18384
     18383     18381     18384     18384     18387     18388     18384     18387     18389
     18384     18387     18390     18385     18384     18386     18385     18384     18387
     18386     18384     18387     18387     18390     18391     18387     18390     18392
     18387     18390     18393     18388     18387     18389     18388     18387     18390
     18389     18387     18390     18391     18390     18392     18391     18390     18393
     18392     18390     18393     18394     18397     18398     18394     18397     18399
     18394     18397     18400     18395     18394     18396     18395     18394     18397
     18396     18394     18397     18397     18400     18401     18397     18400     18402
     18397     18400     18403     18398     18397     18399     18398     18397     18400
     18399     18397     18400     18400     18403     18404     18400     18403     18405
     18400     18403     18406     18401     18400     18402     18401     18400     18403
     18402     18400     18403     18403     18406     18407     18403     18406     18408
     18403     18406     18409     18404     18403     18405     18404     18403     18406
     18405     18403     18406     18406     18409     18410     18406     18409     18411
     18406     18409     18412     18407     18406     18408     18407     18406     18409
     18408     18406     18409     18409     18412     18413     18409     18412     18414
     18410     18409     18411     18410     18409     18412     18411     18409     18412
     18412     18414     18415     18412     18414     18416     18413     18412     18414
     18414     18416     18417     18414     18416     18418     18414     18416     18419
     18415     18414     18416     18416     18419     18420     18416     18419     18421
     18416     18419     18422     18417     18416     18418     18417     18416     18419
     18418     18416     18419     18419     18422     18423     18419     18422     18424
     18419     18422     18425     18420     18419     18421     18420     18419     18422
     18421     18419     18422     18422     18425     18426     18422     18425     18427
     18422     18425     18428     18423     18422     18424     18423     18422     18425
     18424     18422     18425     18425     18428     18429     18425     18428     18430
     18425     18428     18431     18426     18425     18427     18426     18425     18428
     18427     18425     18428     18428     18431     18432     18428     18431     18433
     18428     18431     18434     18429     18428     18430     18429     18428     18431
     18430     18428     18431     18431     18434     18435     18431     18434     18436
     18431     18434     18437     18432     18431     18433     18432     18431     18434
     18433     18431     18434     18434     18437     18438     18434     18437     18439
     18434     18437     18440     18435     18434     18436     18435     18434     18437
     18436     18434     18437     18438     18437     18439     18438     18437     18440
     18439     18437     18440     18441     18442     18443     18441     18442     18444
     18441     18442     18457     18441     18445     18446     18441     18445     18447
     18441     18445     18448     18441     18449     18450     18441     18449     18451
     18441     18449     18452     18441     18453     18454     18441     18453     18455
     18441     18453     18456     18442     18441     18445     18442     18441     18449
     18442     18441     18453     18442     18457     18458     18442     18457     18459
     18442     18457     18463     18443     18442     18444     18443     18442     18457
     18444     18442     18457     18445     18441     18449     18445     18441     18453
     18446     18445     18447     18446     18445     18448     18447     18445     18448
     18449     18441     18453     18450     18449     18451     18450     18449     18452
     18451     18449     18452     18454     18453     18455     18454     18453     18456
     18455     18453     18456     18457     18463     18460     18458     18457     18459
     18458     18457     18463     18459     18457     18463     18460     18464     18465
     18461     18460     18462     18461     18460     18463     18461     18460     18464
     18462     18460     18463     18462     18460     18464     18463     18460     18464
     18464     18465     18466     18464     18465     18467     18464     18465     18468
     18465     18468     18469     18465     18468     18470     18465     18468     18476
     18466     18465     18467     18466     18465     18468     18467     18465     18468
     18468     18470     18471     18468     18476     18477     18468     18476     18478
     18468     18476     18479     18469     18468     18470     18469     18468     18476
     18470     18468     18476     18470     18471     18472     18470     18471     18473
     18471     18473     18474     18471     18473     18475     18471     18473     18485
     18472     18471     18473     18473     18485     18486     18473     18485     18487
     18473     18485     18488     18474     18473     18475     18474     18473     18485
     18475     18473     18485     18476     18479     18480     18477     18476     18478
     18477     18476     18479     18478     18476     18479     18479     18480     18481
     18479     18480     18482     18480     18482     18483     18480     18482     18484
     18480     18482     18532     18481     18480     18482     18482     18532     18533
     18482     18532     18534     18482     18532     18535     18483     18482     18484
     18483     18482     18532     18484     18482     18532     18485     18488     18489
     18485     18488     18490     18485     18488     18491     18486     18485     18487
     18486     18485     18488     18487     18485     18488     18488     18491     18492
     18488     18491     18493     18488     18491     18494     18489     18488     18490
     18489     18488     18491     18490     18488     18491     18491     18494     18495
     18491     18494     18496     18491     18494     18497     18492     18491     18493
     18492     18491     18494     18493     18491     18494     18494     18497     18498
     18494     18497     18499     18494     18497     18500     18495     18494     18496
     18495     18494     18497     18496     18494     18497     18497     18500     18501
     18497     18500     18502     18497     18500     18503     18498     18497     18499
     18498     18497     18500     18499     18497     18500     18500     18503     18504
     18500     18503     18505     18501     18500     18502     18501     18500     18503
     18502     18500     18503     18503     18505     18506     18503     18505     18507
     18504     18503     18505     18505     18507     18508     18505     18507     18509
     18505     18507     18510     18506     18505     18507     18507     18510     18511
     18507     18510     18512     18507     18510     18513     18508     18507     18509
     18508     18507     18510     18509     18507     18510     18510     18513     18514
     18510     18513     18515     18510     18513     18516     18511     18510     18512
     18511     18510     18513     18512     18510     18513     18513     18516     18517
     18513     18516     18518     18513     18516     18519     18514     18513     18515
     18514     18513     18516     18515     18513     18516     18516     18519     18520
     18516     18519     18521     18516     18519     18522     18517     18516     18518
     18517     18516     18519     18518     18516     18519     18519     18522     18523
     18519     18522     18524     18519     18522     18525     18520     18519     18521
     18520     18519     18522     18521     18519     18522     18522     18525     18526
     18522     18525     18527     18522     18525     18528     18523     18522     18524
     18523     18522     18525     18524     18522     18525     18525     18528     18529
     18525     18528     18530     18525     18528     18531     18526     18525     18527
     18526     18525     18528     18527     18525     18528     18529     18528     18530
     18529     18528     18531     18530     18528     18531     18532     18535     18536
     18532     18535     18537     18532     18535     18538     18533     18532     18534
     18533     18532     18535     18534     18532     18535     18535     18538     18539
     18535     18538     18540     18535     18538     18541     18536     18535     18537
     18536     18535     18538     18537     18535     18538     18538     18541     18542
     18538     18541     18543     18538     18541     18544     18539     18538     18540
     18539     18538     18541     18540     18538     18541     18541     18544     18545
     18541     18544     18546     18541     18544     18547     18542     18541     18543
     18542     18541     18544     18543     18541     18544     18544     18547     18548
     18544     18547     18549     18544     18547     18550     18545     18544     18546
     18545     18544     18547     18546     18544     18547     18547     18550     18551
     18547     18550     18552     18548     18547     18549     18548     18547     18550
     18549     18547     18550     18550     18552     18553     18550     18552     18554
     18551     18550     18552     18552     18554     18555     18552     18554     18556
     18552     18554     18557     18553     18552     18554     18554     18557     18558
     18554     18557     18559     18554     18557     18560     18555     18554     18556
     18555     18554     18557     18556     18554     18557     18557     18560     18561
     18557     18560     18562     18557     18560     18563     18558     18557     18559
     18558     18557     18560     18559     18557     18560     18560     18563     18564
     18560     18563     18565     18560     18563     18566     18561     18560     18562
     18561     18560     18563     18562     18560     18563     18563     18566     18567
     18563     18566     18568     18563     18566     18569     18564     18563     18565
     18564     18563     18566     18565     18563     18566     18566     18569     18570
     18566     18569     18571     18566     18569     18572     18567     18566     18568
     18567     18566     18569     18568     18566     18569     18569     18572     18573
     18569     18572     18574     18569     18572     18575     18570     18569     18571
     18570     18569     18572     18571     18569     18572     18572     18575     18576
     18572     18575     18577     18572     18575     18578     18573     18572     18574
     18573     18572     18575     18574     18572     18575     18576     18575     18577
     18576     18575     18578     18577     18575     18578     18579     18580     18581
     18579     18580     18582     18579     18580     18595     18579     18583     18584
     18579     18583     18585     18579     18583     18586     18579     18587     18588
     18579     18587     18589     18579     18587     18590     18579     18591     18592
     18579     18591     18593     18579     18591     18594     18580     18579     18583
     18580     18579     18587     18580     18579     18591     18580     18595     18596
     18580     18595     18597     18580     18595     18601     18581     18580     18582
     18581     18580     18595     18582     18580     18595     18583     18579     18587
     18583     18579     18591     18584     18583     18585     18584     18583     18586
     18585     18583     18586     18587     18579     18591     18588     18587     18589
     18588     18587     18590     18589     18587     18590     18592     18591     18593
     18592     18591     18594     18593     18591     18594     18595     18601     18598
     18596     18595     18597     18596     18595     18601     18597     18595     18601
     18598     18602     18603     18599     18598     18600     18599     18598     18601
     18599     18598     18602     18600     18598     18601     18600     18598     18602
     18601     18598     18602     18602     18603     18604     18602     18603     18605
     18602     18603     18606     18603     18606     18607     18603     18606     18608
     18603     18606     18614     18604     18603     18605     18604     18603     18606
     18605     18603     18606     18606     18608     18609     18606     18614     18615
     18606     18614     18616     18606     18614     18617     18607     18606     18608
     18607     18606     18614     18608     18606     18614     18608     18609     18610
     18608     18609     18611     18609     18611     18612     18609     18611     18613
     18609     18611     18623     18610     18609     18611     18611     18623     18624
     18611     18623     18625     18611     18623     18626     18612     18611     18613
     18612     18611     18623     18613     18611     18623     18614     18617     18618
     18615     18614     18616     18615     18614     18617     18616     18614     18617
     18617     18618     18619     18617     18618     18620     18618     18620     18621
     18618     18620     18622     18618     18620     18670     18619     18618     18620
     18620     18670     18671     18620     18670     18672     18620     18670     18673
     18621     18620     18622     18621     18620     18670     18622     18620     18670
     18623     18626     18627     18623     18626     18628     18623     18626     18629
     18624     18623     18625     18624     18623     18626     18625     18623     18626
     18626     18629     18630     18626     18629     18631     18626     18629     18632
     18627     18626     18628     18627     18626     18629     18628     18626     18629
     18629     18632     18633     18629     18632     18634     18629     18632     18635
     18630     18629     18631     18630     18629     18632     18631     18629     18632
     18632     18635     18636     18632     18635     18637     18632     18635     18638
     18633     18632     18634     18633     18632     18635     18634     18632     18635
     18635     18638     18639     18635     18638     18640     18635     18638     18641
     18636     18635     18637     18636     18635     18638     18637     18635     18638
     18638     18641     18642     18638     18641     18643     18639     18638     18640
     18639     18638     18641     18640     18638     18641     18641     18643     18644
     18641     18643     18645     18642     18641     18643     18643     18645     18646
     18643     18645     18647     18643     18645     18648     18644     18643     18645
     18645     18648     18649     18645     18648     18650     18645     18648     18651
     18646     18645     18647     18646     18645     18648     18647     18645     18648
     18648     18651     18652     18648     18651     18653     18648     18651     18654
     18649     18648     18650     18649     18648     18651     18650     18648     18651
     18651     18654     18655     18651     18654     18656     18651     18654     18657
     18652     18651     18653     18652     18651     18654     18653     18651     18654
     18654     18657     18658     18654     18657     18659     18654     18657     18660
     18655     18654     18656     18655     18654     18657     18656     18654     18657
     18657     18660     18661     18657     18660     18662     18657     18660     18663
     18658     18657     18659     18658     18657     18660     18659     18657     18660
     18660     18663     18664     18660     18663     18665     18660     18663     18666
     18661     18660     18662     18661     18660     18663     18662     18660     18663
     18663     18666     18667     18663     18666     18668     18663     18666     18669
     18664     18663     18665     18664     18663     18666     18665     18663     18666
     18667     18666     18668     18667     18666     18669     18668     18666     18669
     18670     18673     18674     18670     18673     18675     18670     18673     18676
     18671     18670     18672     18671     18670     18673     18672     18670     18673
     18673     18676     18677     18673     18676     18678     18673     18676     18679
     18674     18673     18675     18674     18673     18676     18675     18673     18676
     18676     18679     18680     18676     18679     18681     18676     18679     18682
     18677     18676     18678     18677     18676     18679     18678     18676     18679
     18679     18682     18683     18679     18682     18684     18679     18682     18685
     18680     18679     18681     18680     18679     18682     18681     18679     18682
     18682     18685     18686     18682     18685     18687     18682     18685     18688
     18683     18682     18684     18683     18682     18685     18684     18682     18685
     18685     18688     18689     18685     18688     18690     18686     18685     18687
     18686     18685     18688     18687     18685     18688     18688     18690     18691
     18688     18690     18692     18689     18688     18690     18690     18692     18693
     18690     18692     18694     18690     18692     18695     18691     18690     18692
     18692     18695     18696     18692     18695     18697     18692     18695     18698
     18693     18692     18694     18693     18692     18695     18694     18692     18695
     18695     18698     18699     18695     18698     18700     18695     18698     18701
     18696     18695     18697     18696     18695     18698     18697     18695     18698
     18698     18701     18702     18698     18701     18703     18698     18701     18704
     18699     18698     18700     18699     18698     18701     18700     18698     18701
     18701     18704     18705     18701     18704     18706     18701     18704     18707
     18702     18701     18703     18702     18701     18704     18703     18701     18704
     18704     18707     18708     18704     18707     18709     18704     18707     18710
     18705     18704     18706     18705     18704     18707     18706     18704     18707
     18707     18710     18711     18707     18710     18712     18707     18710     18713
     18708     18707     18709     18708     18707     18710     18709     18707     18710
     18710     18713     18714     18710     18713     18715     18710     18713     18716
     18711     18710     18712     18711     18710     18713     18712     18710     18713
     18714     18713     18715     18714     18713     18716     18715     18713     18716

     49288 !NPHI: dihedrals
         1         5         8         9         1         5         8        10
         2         1         5         6         2         1         5         7
         2         1         5         8         3         1         5         6
         3         1         5         7         3         1         5         8
         4         1         5         6         4         1         5         7
         4         1         5         8         5         8        10        11
         5         8        10        12         6         5         8         9
         6         5         8        10         7         5         8         9
         7         5         8        10         8        10        12        13
         8        10        12        14         8        10        12        18
         9         8        10        11         9         8        10        12
        10        12        14        15        10        12        14        16
        10        12        14        17        10        12        18        19
        10        12        18        20        11        10        12        13
        11        10        12        14        11        10        12        18
        12        18        20        21        12        18        20        22
        13        12        14        15        13        12        14        16
        13        12        14        17        13        12        18        19
        13        12        18        20        14        12        18        19
        14        12        18        20        15        14        12        18
        16        14        12        18        17        14        12        18
        18        20        22        23        18        20        22        24
        18        20        22        37        19        18        20        21
        19        18        20        22        20        22        24        25
        20        22        24        26        20        22        24        27
        20        22        37        38        20        22        37        39
        21        20        22        23        21        20        22        24
        21        20        22        37        22        24        27        28
        22        24        27        29        22        24        27        33
        22        37        39        40        22        37        39        41
        23        22        24        25        23        22        24        26
        23        22        24        27        23        22        37        38
        23        22        37        39        24        22        37        38
        24        22        37        39        24        27        29        30
        24        27        29        31        24        27        29        32
        24        27        33        34        24        27        33        35
        24        27        33        36        25        24        22        37
        25        24        27        28        25        24        27        29
        25        24        27        33        26        24        22        37
        26        24        27        28        26        24        27        29
        26        24        27        33        27        24        22        37
        28        27        29        30        28        27        29        31
        28        27        29        32        28        27        33        34
        28        27        33        35        28        27        33        36
        29        27        33        34        29        27        33        35
        29        27        33        36        30        29        27        33
        31        29        27        33        32        29        27        33
        37        39        41        42        37        39        41        43
        37        39        41        47        38        37        39        40
        38        37        39        41        39        41        43        44
        39        41        43        45        39        41        43        46
        39        41        47        48        39        41        47        49
        40        39        41        42        40        39        41        43
        40        39        41        47        41        47        49        50
        41        47        49        51        42        41        43        44
        42        41        43        45        42        41        43        46
        42        41        47        48        42        41        47        49
        43        41        47        48        43        41        47        49
        44        43        41        47        45        43        41        47
        46        43        41        47        47        49        51        52
        47        49        51        53        47        49        51        63
        48        47        49        50        48        47        49        51
        49        51        53        54        49        51        53        55
        49        51        53        59        49        51        63        64
        49        51        63        65        50        49        51        52
        50        49        51        53        50        49        51        63
        51        53        55        56        51        53        55        57
        51        53        55        58        51        53        59        60
        51        53        59        61        51        53        59        62
        51        63        65        66        51        63        65        67
        52        51        53        54        52        51        53        55
        52        51        53        59        52        51        63        64
        52        51        63        65        53        51        63        64
        53        51        63        65        54        53        51        63
        54        53        55        56        54        53        55        57
        54        53        55        58        54        53        59        60
        54        53        59        61        54        53        59        62
        55        53        51        63        55        53        59        60
        55        53        59        61        55        53        59        62
        56        55        53        59        57        55        53        59
        58        55        53        59        59        53        51        63
        63        65        67        68        63        65        67        69
        63        65        67        79        64        63        65        66
        64        63        65        67        65        67        69        70
        65        67        69        71        65        67        69        75
        65        67        79        80        65        67        79        81
        66        65        67        68        66        65        67        69
        66        65        67        79        67        69        71        72
        67        69        71        73        67        69        71        74
        67        69        75        76        67        69        75        77
        67        69        75        78        67        79        81        82
        67        79        81        83        68        67        69        70
        68        67        69        71        68        67        69        75
        68        67        79        80        68        67        79        81
        69        67        79        80        69        67        79        81
        70        69        67        79        70        69        71        72
        70        69        71        73        70        69        71        74
        70        69        75        76        70        69        75        77
        70        69        75        78        71        69        67        79
        71        69        75        76        71        69        75        77
        71        69        75        78        72        71        69        75
        73        71        69        75        74        71        69        75
        75        69        67        79        79        81        83        84
        79        81        83        85        79        81        83        95
        80        79        81        82        80        79        81        83
        81        83        85        86        81        83        85        87
        81        83        85        91        81        83        95        96
        81        83        95        97        82        81        83        84
        82        81        83        85        82        81        83        95
        83        85        87        88        83        85        87        89
        83        85        87        90        83        85        91        92
        83        85        91        93        83        85        91        94
        83        95        97        98        83        95        97        99
        84        83        85        86        84        83        85        87
        84        83        85        91        84        83        95        96
        84        83        95        97        85        83        95        96
        85        83        95        97        86        85        83        95
        86        85        87        88        86        85        87        89
        86        85        87        90        86        85        91        92
        86        85        91        93        86        85        91        94
        87        85        83        95        87        85        91        92
        87        85        91        93        87        85        91        94
        88        87        85        91        89        87        85        91
        90        87        85        91        91        85        83        95
        95        97        99       100        95        97        99       101
        95        97        99       119        96        95        97        98
        96        95        97        99        97        99       101       102
        97        99       101       103        97        99       101       104
        97        99       119       120        97        99       119       121
        98        97        99       100        98        97        99       101
        98        97        99       119        99       101       104       105
        99       101       104       110        99       119       121       122
        99       119       121       123       100        99       101       102
       100        99       101       103       100        99       101       104
       100        99       119       120       100        99       119       121
       101        99       119       120       101        99       119       121
       101       104       105       106       101       104       105       107
       101       104       110       109       101       104       110       111
       102       101        99       119       102       101       104       105
       102       101       104       110       103       101        99       119
       103       101       104       105       103       101       104       110
       104       101        99       119       104       105       107       108
       104       105       107       109       104       110       109       107
       104       110       109       115       104       110       111       112
       104       110       111       113       105       104       110       109
       105       104       110       111       105       107       109       110
       105       107       109       115       106       105       104       110
       106       105       107       108       106       105       107       109
       107       105       104       110       107       109       110       111
       107       109       115       116       107       109       115       117
       108       107       109       110       108       107       109       115
       109       110       111       112       109       110       111       113
       109       115       117       113       109       115       117       118
       110       109       115       116       110       109       115       117
       110       111       113       114       110       111       113       117
       111       110       109       115       111       113       117       115
       111       113       117       118       112       111       113       114
       112       111       113       117       113       117       115       116
       114       113       117       115       114       113       117       118
       116       115       117       118       119       121       123       124
       119       121       123       125       119       121       123       138
       120       119       121       122       120       119       121       123
       121       123       125       126       121       123       125       127
       121       123       125       128       121       123       138       139
       121       123       138       140       122       121       123       124
       122       121       123       125       122       121       123       138
       123       125       128       129       123       125       128       130
       123       125       128       134       123       138       140       141
       123       138       140       142       124       123       125       126
       124       123       125       127       124       123       125       128
       124       123       138       139       124       123       138       140
       125       123       138       139       125       123       138       140
       125       128       130       131       125       128       130       132
       125       128       130       133       125       128       134       135
       125       128       134       136       125       128       134       137
       126       125       123       138       126       125       128       129
       126       125       128       130       126       125       128       134
       127       125       123       138       127       125       128       129
       127       125       128       130       127       125       128       134
       128       125       123       138       129       128       130       131
       129       128       130       132       129       128       130       133
       129       128       134       135       129       128       134       136
       129       128       134       137       130       128       134       135
       130       128       134       136       130       128       134       137
       131       130       128       134       132       130       128       134
       133       130       128       134       138       140       142       143
       138       140       142       144       138       140       142       162
       139       138       140       141       139       138       140       142
       140       142       144       145       140       142       144       146
       140       142       144       147       140       142       162       163
       140       142       162       164       141       140       142       143
       141       140       142       144       141       140       142       162
       142       144       147       148       142       144       147       153
       142       162       164       165       142       162       164       166
       143       142       144       145       143       142       144       146
       143       142       144       147       143       142       162       163
       143       142       162       164       144       142       162       163
       144       142       162       164       144       147       148       149
       144       147       148       150       144       147       153       152
       144       147       153       154       145       144       142       162
       145       144       147       148       145       144       147       153
       146       144       142       162       146       144       147       148
       146       144       147       153       147       144       142       162
       147       148       150       151       147       148       150       152
       147       153       152       150       147       153       152       158
       147       153       154       155       147       153       154       156
       148       147       153       152       148       147       153       154
       148       150       152       153       148       150       152       158
       149       148       147       153       149       148       150       151
       149       148       150       152       150       148       147       153
       150       152       153       154       150       152       158       159
       150       152       158       160       151       150       152       153
       151       150       152       158       152       153       154       155
       152       153       154       156       152       158       160       156
       152       158       160       161       153       152       158       159
       153       152       158       160       153       154       156       157
       153       154       156       160       154       153       152       158
       154       156       160       158       154       156       160       161
       155       154       156       157       155       154       156       160
       156       160       158       159       157       156       160       158
       157       156       160       161       159       158       160       161
       162       164       166       167       162       164       166       168
       162       164       166       181       163       162       164       165
       163       162       164       166       164       166       168       169
       164       166       168       170       164       166       168       171
       164       166       181       182       164       166       181       183
       165       164       166       167       165       164       166       168
       165       164       166       181       166       168       171       172
       166       168       171       173       166       168       171       177
       166       181       183       184       166       181       183       185
       167       166       168       169       167       166       168       170
       167       166       168       171       167       166       181       182
       167       166       181       183       168       166       181       182
       168       166       181       183       168       171       173       174
       168       171       173       175       168       171       173       176
       168       171       177       178       168       171       177       179
       168       171       177       180       169       168       166       181
       169       168       171       172       169       168       171       173
       169       168       171       177       170       168       166       181
       170       168       171       172       170       168       171       173
       170       168       171       177       171       168       166       181
       172       171       173       174       172       171       173       175
       172       171       173       176       172       171       177       178
       172       171       177       179       172       171       177       180
       173       171       177       178       173       171       177       179
       173       171       177       180       174       173       171       177
       175       173       171       177       176       173       171       177
       181       183       185       186       181       183       185       187
       181       183       185       205       182       181       183       184
       182       181       183       185       183       185       187       188
       183       185       187       189       183       185       187       190
       183       185       205       206       183       185       205       207
       184       183       185       186       184       183       185       187
       184       183       185       205       185       187       190       191
       185       187       190       196       185       205       207       208
       185       205       207       209       186       185       187       188
       186       185       187       189       186       185       187       190
       186       185       205       206       186       185       205       207
       187       185       205       206       187       185       205       207
       187       190       191       192       187       190       191       193
       187       190       196       195       187       190       196       197
       188       187       185       205       188       187       190       191
       188       187       190       196       189       187       185       205
       189       187       190       191       189       187       190       196
       190       187       185       205       190       191       193       194
       190       191       193       195       190       196       195       193
       190       196       195       201       190       196       197       198
       190       196       197       199       191       190       196       195
       191       190       196       197       191       193       195       196
       191       193       195       201       192       191       190       196
       192       191       193       194       192       191       193       195
       193       191       190       196       193       195       196       197
       193       195       201       202       193       195       201       203
       194       193       195       196       194       193       195       201
       195       196       197       198       195       196       197       199
       195       201       203       199       195       201       203       204
       196       195       201       202       196       195       201       203
       196       197       199       200       196       197       199       203
       197       196       195       201       197       199       203       201
       197       199       203       204       198       197       199       200
       198       197       199       203       199       203       201       202
       200       199       203       201       200       199       203       204
       202       201       203       204       205       207       209       210
       205       207       209       211       205       207       209       224
       206       205       207       208       206       205       207       209
       207       209       211       212       207       209       211       213
       207       209       211       214       207       209       224       225
       207       209       224       226       208       207       209       210
       208       207       209       211       208       207       209       224
       209       211       214       215       209       211       214       216
       209       211       214       220       209       224       226       227
       209       224       226       228       210       209       211       212
       210       209       211       213       210       209       211       214
       210       209       224       225       210       209       224       226
       211       209       224       225       211       209       224       226
       211       214       216       217       211       214       216       218
       211       214       216       219       211       214       220       221
       211       214       220       222       211       214       220       223
       212       211       209       224       212       211       214       215
       212       211       214       216       212       211       214       220
       213       211       209       224       213       211       214       215
       213       211       214       216       213       211       214       220
       214       211       209       224       215       214       216       217
       215       214       216       218       215       214       216       219
       215       214       220       221       215       214       220       222
       215       214       220       223       216       214       220       221
       216       214       220       222       216       214       220       223
       217       216       214       220       218       216       214       220
       219       216       214       220       224       226       228       229
       224       226       228       230       224       226       228       248
       225       224       226       227       225       224       226       228
       226       228       230       231       226       228       230       232
       226       228       230       233       226       228       248       249
       226       228       248       250       227       226       228       229
       227       226       228       230       227       226       228       248
       228       230       233       234       228       230       233       239
       229       228       230       231       229       228       230       232
       229       228       230       233       229       228       248       249
       229       228       248       250       230       228       248       249
       230       228       248       250       230       233       234       235
       230       233       234       236       230       233       239       238
       230       233       239       240       231       230       228       248
       231       230       233       234       231       230       233       239
       232       230       228       248       232       230       233       234
       232       230       233       239       233       230       228       248
       233       234       236       237       233       234       236       238
       233       239       238       236       233       239       238       244
       233       239       240       241       233       239       240       242
       234       233       239       238       234       233       239       240
       234       236       238       239       234       236       238       244
       235       234       233       239       235       234       236       237
       235       234       236       238       236       234       233       239
       236       238       239       240       236       238       244       245
       236       238       244       246       237       236       238       239
       237       236       238       244       238       239       240       241
       238       239       240       242       238       244       246       242
       238       244       246       247       239       238       244       245
       239       238       244       246       239       240       242       243
       239       240       242       246       240       239       238       244
       240       242       246       244       240       242       246       247
       241       240       242       243       241       240       242       246
       242       246       244       245       243       242       246       244
       243       242       246       247       245       244       246       247
       251       255       258       259       251       255       258       260
       252       251       255       256       252       251       255       257
       252       251       255       258       253       251       255       256
       253       251       255       257       253       251       255       258
       254       251       255       256       254       251       255       257
       254       251       255       258       255       258       260       261
       255       258       260       262       256       255       258       259
       256       255       258       260       257       255       258       259
       257       255       258       260       258       260       262       263
       258       260       262       264       258       260       262       268
       259       258       260       261       259       258       260       262
       260       262       264       265       260       262       264       266
       260       262       264       267       260       262       268       269
       260       262       268       270       261       260       262       263
       261       260       262       264       261       260       262       268
       262       268       270       271       262       268       270       272
       263       262       264       265       263       262       264       266
       263       262       264       267       263       262       268       269
       263       262       268       270       264       262       268       269
       264       262       268       270       265       264       262       268
       266       264       262       268       267       264       262       268
       268       270       272       273       268       270       272       274
       268       270       272       287       269       268       270       271
       269       268       270       272       270       272       274       275
       270       272       274       276       270       272       274       277
       270       272       287       288       270       272       287       289
       271       270       272       273       271       270       272       274
       271       270       272       287       272       274       277       278
       272       274       277       279       272       274       277       283
       272       287       289       290       272       287       289       291
       273       272       274       275       273       272       274       276
       273       272       274       277       273       272       287       288
       273       272       287       289       274       272       287       288
       274       272       287       289       274       277       279       280
       274       277       279       281       274       277       279       282
       274       277       283       284       274       277       283       285
       274       277       283       286       275       274       272       287
       275       274       277       278       275       274       277       279
       275       274       277       283       276       274       272       287
       276       274       277       278       276       274       277       279
       276       274       277       283       277       274       272       287
       278       277       279       280       278       277       279       281
       278       277       279       282       278       277       283       284
       278       277       283       285       278       277       283       286
       279       277       283       284       279       277       283       285
       279       277       283       286       280       279       277       283
       281       279       277       283       282       279       277       283
       287       289       291       292       287       289       291       293
       287       289       291       297       288       287       289       290
       288       287       289       291       289       291       293       294
       289       291       293       295       289       291       293       296
       289       291       297       298       289       291       297       299
       290       289       291       292       290       289       291       293
       290       289       291       297       291       297       299       300
       291       297       299       301       292       291       293       294
       292       291       293       295       292       291       293       296
       292       291       297       298       292       291       297       299
       293       291       297       298       293       291       297       299
       294       293       291       297       295       293       291       297
       296       293       291       297       297       299       301       302
       297       299       301       303       297       299       301       313
       298       297       299       300       298       297       299       301
       299       301       303       304       299       301       303       305
       299       301       303       309       299       301       313       314
       299       301       313       315       300       299       301       302
       300       299       301       303       300       299       301       313
       301       303       305       306       301       303       305       307
       301       303       305       308       301       303       309       310
       301       303       309       311       301       303       309       312
       301       313       315       316       301       313       315       317
       302       301       303       304       302       301       303       305
       302       301       303       309       302       301       313       314
       302       301       313       315       303       301       313       314
       303       301       313       315       304       303       301       313
       304       303       305       306       304       303       305       307
       304       303       305       308       304       303       309       310
       304       303       309       311       304       303       309       312
       305       303       301       313       305       303       309       310
       305       303       309       311       305       303       309       312
       306       305       303       309       307       305       303       309
       308       305       303       309       309       303       301       313
       313       315       317       318       313       315       317       319
       313       315       317       329       314       313       315       316
       314       313       315       317       315       317       319       320
       315       317       319       321       315       317       319       325
       315       317       329       330       315       317       329       331
       316       315       317       318       316       315       317       319
       316       315       317       329       317       319       321       322
       317       319       321       323       317       319       321       324
       317       319       325       326       317       319       325       327
       317       319       325       328       317       329       331       332
       317       329       331       333       318       317       319       320
       318       317       319       321       318       317       319       325
       318       317       329       330       318       317       329       331
       319       317       329       330       319       317       329       331
       320       319       317       329       320       319       321       322
       320       319       321       323       320       319       321       324
       320       319       325       326       320       319       325       327
       320       319       325       328       321       319       317       329
       321       319       325       326       321       319       325       327
       321       319       325       328       322       321       319       325
       323       321       319       325       324       321       319       325
       325       319       317       329       329       331       333       334
       329       331       333       335       329       331       333       345
       330       329       331       332       330       329       331       333
       331       333       335       336       331       333       335       337
       331       333       335       341       331       333       345       346
       331       333       345       347       332       331       333       334
       332       331       333       335       332       331       333       345
       333       335       337       338       333       335       337       339
       333       335       337       340       333       335       341       342
       333       335       341       343       333       335       341       344
       333       345       347       348       333       345       347       349
       334       333       335       336       334       333       335       337
       334       333       335       341       334       333       345       346
       334       333       345       347       335       333       345       346
       335       333       345       347       336       335       333       345
       336       335       337       338       336       335       337       339
       336       335       337       340       336       335       341       342
       336       335       341       343       336       335       341       344
       337       335       333       345       337       335       341       342
       337       335       341       343       337       335       341       344
       338       337       335       341       339       337       335       341
       340       337       335       341       341       335       333       345
       345       347       349       350       345       347       349       351
       345       347       349       369       346       345       347       348
       346       345       347       349       347       349       351       352
       347       349       351       353       347       349       351       354
       347       349       369       370       347       349       369       371
       348       347       349       350       348       347       349       351
       348       347       349       369       349       351       354       355
       349       351       354       360       349       369       371       372
       349       369       371       373       350       349       351       352
       350       349       351       353       350       349       351       354
       350       349       369       370       350       349       369       371
       351       349       369       370       351       349       369       371
       351       354       355       356       351       354       355       357
       351       354       360       359       351       354       360       361
       352       351       349       369       352       351       354       355
       352       351       354       360       353       351       349       369
       353       351       354       355       353       351       354       360
       354       351       349       369       354       355       357       358
       354       355       357       359       354       360       359       357
       354       360       359       365       354       360       361       362
       354       360       361       363       355       354       360       359
       355       354       360       361       355       357       359       360
       355       357       359       365       356       355       354       360
       356       355       357       358       356       355       357       359
       357       355       354       360       357       359       360       361
       357       359       365       366       357       359       365       367
       358       357       359       360       358       357       359       365
       359       360       361       362       359       360       361       363
       359       365       367       363       359       365       367       368
       360       359       365       366       360       359       365       367
       360       361       363       364       360       361       363       367
       361       360       359       365       361       363       367       365
       361       363       367       368       362       361       363       364
       362       361       363       367       363       367       365       366
       364       363       367       365       364       363       367       368
       366       365       367       368       369       371       373       374
       369       371       373       375       369       371       373       388
       370       369       371       372       370       369       371       373
       371       373       375       376       371       373       375       377
       371       373       375       378       371       373       388       389
       371       373       388       390       372       371       373       374
       372       371       373       375       372       371       373       388
       373       375       378       379       373       375       378       380
       373       375       378       384       373       388       390       391
       373       388       390       392       374       373       375       376
       374       373       375       377       374       373       375       378
       374       373       388       389       374       373       388       390
       375       373       388       389       375       373       388       390
       375       378       380       381       375       378       380       382
       375       378       380       383       375       378       384       385
       375       378       384       386       375       378       384       387
       376       375       373       388       376       375       378       379
       376       375       378       380       376       375       378       384
       377       375       373       388       377       375       378       379
       377       375       378       380       377       375       378       384
       378       375       373       388       379       378       380       381
       379       378       380       382       379       378       380       383
       379       378       384       385       379       378       384       386
       379       378       384       387       380       378       384       385
       380       378       384       386       380       378       384       387
       381       380       378       384       382       380       378       384
       383       380       378       384       388       390       392       393
       388       390       392       394       388       390       392       412
       389       388       390       391       389       388       390       392
       390       392       394       395       390       392       394       396
       390       392       394       397       390       392       412       413
       390       392       412       414       391       390       392       393
       391       390       392       394       391       390       392       412
       392       394       397       398       392       394       397       403
       392       412       414       415       392       412       414       416
       393       392       394       395       393       392       394       396
       393       392       394       397       393       392       412       413
       393       392       412       414       394       392       412       413
       394       392       412       414       394       397       398       399
       394       397       398       400       394       397       403       402
       394       397       403       404       395       394       392       412
       395       394       397       398       395       394       397       403
       396       394       392       412       396       394       397       398
       396       394       397       403       397       394       392       412
       397       398       400       401       397       398       400       402
       397       403       402       400       397       403       402       408
       397       403       404       405       397       403       404       406
       398       397       403       402       398       397       403       404
       398       400       402       403       398       400       402       408
       399       398       397       403       399       398       400       401
       399       398       400       402       400       398       397       403
       400       402       403       404       400       402       408       409
       400       402       408       410       401       400       402       403
       401       400       402       408       402       403       404       405
       402       403       404       406       402       408       410       406
       402       408       410       411       403       402       408       409
       403       402       408       410       403       404       406       407
       403       404       406       410       404       403       402       408
       404       406       410       408       404       406       410       411
       405       404       406       407       405       404       406       410
       406       410       408       409       407       406       410       408
       407       406       410       411       409       408       410       411
       412       414       416       417       412       414       416       418
       412       414       416       431       413       412       414       415
       413       412       414       416       414       416       418       419
       414       416       418       420       414       416       418       421
       414       416       431       432       414       416       431       433
       415       414       416       417       415       414       416       418
       415       414       416       431       416       418       421       422
       416       418       421       423       416       418       421       427
       416       431       433       434       416       431       433       435
       417       416       418       419       417       416       418       420
       417       416       418       421       417       416       431       432
       417       416       431       433       418       416       431       432
       418       416       431       433       418       421       423       424
       418       421       423       425       418       421       423       426
       418       421       427       428       418       421       427       429
       418       421       427       430       419       418       416       431
       419       418       421       422       419       418       421       423
       419       418       421       427       420       418       416       431
       420       418       421       422       420       418       421       423
       420       418       421       427       421       418       416       431
       422       421       423       424       422       421       423       425
       422       421       423       426       422       421       427       428
       422       421       427       429       422       421       427       430
       423       421       427       428       423       421       427       429
       423       421       427       430       424       423       421       427
       425       423       421       427       426       423       421       427
       431       433       435       436       431       433       435       437
       431       433       435       455       432       431       433       434
       432       431       433       435       433       435       437       438
       433       435       437       439       433       435       437       440
       433       435       455       456       433       435       455       457
       434       433       435       436       434       433       435       437
       434       433       435       455       435       437       440       441
       435       437       440       446       435       455       457       458
       435       455       457       459       436       435       437       438
       436       435       437       439       436       435       437       440
       436       435       455       456       436       435       455       457
       437       435       455       456       437       435       455       457
       437       440       441       442       437       440       441       443
       437       440       446       445       437       440       446       447
       438       437       435       455       438       437       440       441
       438       437       440       446       439       437       435       455
       439       437       440       441       439       437       440       446
       440       437       435       455       440       441       443       444
       440       441       443       445       440       446       445       443
       440       446       445       451       440       446       447       448
       440       446       447       449       441       440       446       445
       441       440       446       447       441       443       445       446
       441       443       445       451       442       441       440       446
       442       441       443       444       442       441       443       445
       443       441       440       446       443       445       446       447
       443       445       451       452       443       445       451       453
       444       443       445       446       444       443       445       451
       445       446       447       448       445       446       447       449
       445       451       453       449       445       451       453       454
       446       445       451       452       446       445       451       453
       446       447       449       450       446       447       449       453
       447       446       445       451       447       449       453       451
       447       449       453       454       448       447       449       450
       448       447       449       453       449       453       451       452
       450       449       453       451       450       449       453       454
       452       451       453       454       455       457       459       460
       455       457       459       461       455       457       459       474
       456       455       457       458       456       455       457       459
       457       459       461       462       457       459       461       463
       457       459       461       464       457       459       474       475
       457       459       474       476       458       457       459       460
       458       457       459       461       458       457       459       474
       459       461       464       465       459       461       464       466
       459       461       464       470       459       474       476       477
       459       474       476       478       460       459       461       462
       460       459       461       463       460       459       461       464
       460       459       474       475       460       459       474       476
       461       459       474       475       461       459       474       476
       461       464       466       467       461       464       466       468
       461       464       466       469       461       464       470       471
       461       464       470       472       461       464       470       473
       462       461       459       474       462       461       464       465
       462       461       464       466       462       461       464       470
       463       461       459       474       463       461       464       465
       463       461       464       466       463       461       464       470
       464       461       459       474       465       464       466       467
       465       464       466       468       465       464       466       469
       465       464       470       471       465       464       470       472
       465       464       470       473       466       464       470       471
       466       464       470       472       466       464       470       473
       467       466       464       470       468       466       464       470
       469       466       464       470       474       476       478       479
       474       476       478       480       474       476       478       498
       475       474       476       477       475       474       476       478
       476       478       480       481       476       478       480       482
       476       478       480       483       476       478       498       499
       476       478       498       500       477       476       478       479
       477       476       478       480       477       476       478       498
       478       480       483       484       478       480       483       489
       479       478       480       481       479       478       480       482
       479       478       480       483       479       478       498       499
       479       478       498       500       480       478       498       499
       480       478       498       500       480       483       484       485
       480       483       484       486       480       483       489       488
       480       483       489       490       481       480       478       498
       481       480       483       484       481       480       483       489
       482       480       478       498       482       480       483       484
       482       480       483       489       483       480       478       498
       483       484       486       487       483       484       486       488
       483       489       488       486       483       489       488       494
       483       489       490       491       483       489       490       492
       484       483       489       488       484       483       489       490
       484       486       488       489       484       486       488       494
       485       484       483       489       485       484       486       487
       485       484       486       488       486       484       483       489
       486       488       489       490       486       488       494       495
       486       488       494       496       487       486       488       489
       487       486       488       494       488       489       490       491
       488       489       490       492       488       494       496       492
       488       494       496       497       489       488       494       495
       489       488       494       496       489       490       492       493
       489       490       492       496       490       489       488       494
       490       492       496       494       490       492       496       497
       491       490       492       493       491       490       492       496
       492       496       494       495       493       492       496       494
       493       492       496       497       495       494       496       497
       501       502       517       518       501       502       517       519
       501       502       517       523       502       501       505       506
       502       501       505       507       502       501       505       508
       502       501       509       510       502       501       509       511
       502       501       509       512       502       501       513       514
       502       501       513       515       502       501       513       516
       502       517       523       520       503       502       501       505
       503       502       501       509       503       502       501       513
       503       502       517       518       503       502       517       519
       503       502       517       523       504       502       501       505
       504       502       501       509       504       502       501       513
       504       502       517       518       504       502       517       519
       504       502       517       523       505       501       502       517
       505       501       509       510       505       501       509       511
       505       501       509       512       505       501       513       514
       505       501       513       515       505       501       513       516
       506       505       501       509       506       505       501       513
       507       505       501       509       507       505       501       513
       508       505       501       509       508       505       501       513
       509       501       502       517       509       501       513       514
       509       501       513       515       509       501       513       516
       510       509       501       513       511       509       501       513
       512       509       501       513       513       501       502       517
       517       523       520       521       517       523       520       522
       517       523       520       524       518       517       523       520
       519       517       523       520       520       524       525       526
       520       524       525       527       520       524       525       528
       521       520       524       525       522       520       524       525
       523       520       524       525       524       525       528       529
       524       525       528       530       524       525       528       536
       525       528       530       531       525       528       536       537
       525       528       536       538       525       528       536       539
       526       525       528       529       526       525       528       530
       526       525       528       536       527       525       528       529
       527       525       528       530       527       525       528       536
       528       530       531       532       528       530       531       533
       528       536       539       540       529       528       530       531
       529       528       536       537       529       528       536       538
       529       528       536       539       530       528       536       537
       530       528       536       538       530       528       536       539
       530       531       533       534       530       531       533       535
       530       531       533       545       531       530       528       536
       531       533       545       546       531       533       545       547
       531       533       545       548       532       531       533       534
       532       531       533       535       532       531       533       545
       533       545       548       549       533       545       548       550
       533       545       548       551       534       533       545       546
       534       533       545       547       534       533       545       548
       535       533       545       546       535       533       545       547
       535       533       545       548       536       539       540       541
       536       539       540       542       537       536       539       540
       538       536       539       540       539       540       542       543
       539       540       542       544       539       540       542       592
       540       542       592       593       540       542       592       594
       540       542       592       595       541       540       542       543
       541       540       542       544       541       540       542       592
       542       592       595       596       542       592       595       597
       542       592       595       598       543       542       592       593
       543       542       592       594       543       542       592       595
       544       542       592       593       544       542       592       594
       544       542       592       595       545       548       551       552
       545       548       551       553       545       548       551       554
       546       545       548       549       546       545       548       550
       546       545       548       551       547       545       548       549
       547       545       548       550       547       545       548       551
       548       551       554       555       548       551       554       556
       548       551       554       557       549       548       551       552
       549       548       551       553       549       548       551       554
       550       548       551       552       550       548       551       553
       550       548       551       554       551       554       557       558
       551       554       557       559       551       554       557       560
       552       551       554       555       552       551       554       556
       552       551       554       557       553       551       554       555
       553       551       554       556       553       551       554       557
       554       557       560       561       554       557       560       562
       554       557       560       563       555       554       557       558
       555       554       557       559       555       554       557       560
       556       554       557       558       556       554       557       559
       556       554       557       560       557       560       563       564
       557       560       563       565       558       557       560       561
       558       557       560       562       558       557       560       563
       559       557       560       561       559       557       560       562
       559       557       560       563       560       563       565       566
       560       563       565       567       561       560       563       564
       561       560       563       565       562       560       563       564
       562       560       563       565       563       565       567       568
       563       565       567       569       563       565       567       570
       564       563       565       566       564       563       565       567
       565       567       570       571       565       567       570       572
       565       567       570       573       566       565       567       568
       566       565       567       569       566       565       567       570
       567       570       573       574       567       570       573       575
       567       570       573       576       568       567       570       571
       568       567       570       572       568       567       570       573
       569       567       570       571       569       567       570       572
       569       567       570       573       570       573       576       577
       570       573       576       578       570       573       576       579
       571       570       573       574       571       570       573       575
       571       570       573       576       572       570       573       574
       572       570       573       575       572       570       573       576
       573       576       579       580       573       576       579       581
       573       576       579       582       574       573       576       577
       574       573       576       578       574       573       576       579
       575       573       576       577       575       573       576       578
       575       573       576       579       576       579       582       583
       576       579       582       584       576       579       582       585
       577       576       579       580       577       576       579       581
       577       576       579       582       578       576       579       580
       578       576       579       581       578       576       579       582
       579       582       585       586       579       582       585       587
       579       582       585       588       580       579       582       583
       580       579       582       584       580       579       582       585
       581       579       582       583       581       579       582       584
       581       579       582       585       582       585       588       589
       582       585       588       590       582       585       588       591
       583       582       585       586       583       582       585       587
       583       582       585       588       584       582       585       586
       584       582       585       587       584       582       585       588
       586       585       588       589       586       585       588       590
       586       585       588       591       587       585       588       589
       587       585       588       590       587       585       588       591
       592       595       598       599       592       595       598       600
       592       595       598       601       593       592       595       596
       593       592       595       597       593       592       595       598
       594       592       595       596       594       592       595       597
       594       592       595       598       595       598       601       602
       595       598       601       603       595       598       601       604
       596       595       598       599       596       595       598       600
       596       595       598       601       597       595       598       599
       597       595       598       600       597       595       598       601
       598       601       604       605       598       601       604       606
       598       601       604       607       599       598       601       602
       599       598       601       603       599       598       601       604
       600       598       601       602       600       598       601       603
       600       598       601       604       601       604       607       608
       601       604       607       609       601       604       607       610
       602       601       604       605       602       601       604       606
       602       601       604       607       603       601       604       605
       603       601       604       606       603       601       604       607
       604       607       610       611       604       607       610       612
       605       604       607       608       605       604       607       609
       605       604       607       610       606       604       607       608
       606       604       607       609       606       604       607       610
       607       610       612       613       607       610       612       614
       608       607       610       611       608       607       610       612
       609       607       610       611       609       607       610       612
       610       612       614       615       610       612       614       616
       610       612       614       617       611       610       612       613
       611       610       612       614       612       614       617       618
       612       614       617       619       612       614       617       620
       613       612       614       615       613       612       614       616
       613       612       614       617       614       617       620       621
       614       617       620       622       614       617       620       623
       615       614       617       618       615       614       617       619
       615       614       617       620       616       614       617       618
       616       614       617       619       616       614       617       620
       617       620       623       624       617       620       623       625
       617       620       623       626       618       617       620       621
       618       617       620       622       618       617       620       623
       619       617       620       621       619       617       620       622
       619       617       620       623       620       623       626       627
       620       623       626       628       620       623       626       629
       621       620       623       624       621       620       623       625
       621       620       623       626       622       620       623       624
       622       620       623       625       622       620       623       626
       623       626       629       630       623       626       629       631
       623       626       629       632       624       623       626       627
       624       623       626       628       624       623       626       629
       625       623       626       627       625       623       626       628
       625       623       626       629       626       629       632       633
       626       629       632       634       626       629       632       635
       627       626       629       630       627       626       629       631
       627       626       629       632       628       626       629       630
       628       626       629       631       628       626       629       632
       629       632       635       636       629       632       635       637
       629       632       635       638       630       629       632       633
       630       629       632       634       630       629       632       635
       631       629       632       633       631       629       632       634
       631       629       632       635       633       632       635       636
       633       632       635       637       633       632       635       638
       634       632       635       636       634       632       635       637
       634       632       635       638       639       640       655       656
       639       640       655       657       639       640       655       661
       640       639       643       644       640       639       643       645
       640       639       643       646       640       639       647       648
       640       639       647       649       640       639       647       650
       640       639       651       652       640       639       651       653
       640       639       651       654       640       655       661       658
       641       640       639       643       641       640       639       647
       641       640       639       651       641       640       655       656
       641       640       655       657       641       640       655       661
       642       640       639       643       642       640       639       647
       642       640       639       651       642       640       655       656
       642       640       655       657       642       640       655       661
       643       639       640       655       643       639       647       648
       643       639       647       649       643       639       647       650
       643       639       651       652       643       639       651       653
       643       639       651       654       644       643       639       647
       644       643       639       651       645       643       639       647
       645       643       639       651       646       643       639       647
       646       643       639       651       647       639       640       655
       647       639       651       652       647       639       651       653
       647       639       651       654       648       647       639       651
       649       647       639       651       650       647       639       651
       651       639       640       655       655       661       658       659
       655       661       658       660       655       661       658       662
       656       655       661       658       657       655       661       658
       658       662       663       664       658       662       663       665
       658       662       663       666       659       658       662       663
       660       658       662       663       661       658       662       663
       662       663       666       667       662       663       666       668
       662       663       666       674       663       666       668       669
       663       666       674       675       663       666       674       676
       663       666       674       677       664       663       666       667
       664       663       666       668       664       663       666       674
       665       663       666       667       665       663       666       668
       665       663       666       674       666       668       669       670
       666       668       669       671       666       674       677       678
       667       666       668       669       667       666       674       675
       667       666       674       676       667       666       674       677
       668       666       674       675       668       666       674       676
       668       666       674       677       668       669       671       672
       668       669       671       673       668       669       671       683
       669       668       666       674       669       671       683       684
       669       671       683       685       669       671       683       686
       670       669       671       672       670       669       671       673
       670       669       671       683       671       683       686       687
       671       683       686       688       671       683       686       689
       672       671       683       684       672       671       683       685
       672       671       683       686       673       671       683       684
       673       671       683       685       673       671       683       686
       674       677       678       679       674       677       678       680
       675       674       677       678       676       674       677       678
       677       678       680       681       677       678       680       682
       677       678       680       730       678       680       730       731
       678       680       730       732       678       680       730       733
       679       678       680       681       679       678       680       682
       679       678       680       730       680       730       733       734
       680       730       733       735       680       730       733       736
       681       680       730       731       681       680       730       732
       681       680       730       733       682       680       730       731
       682       680       730       732       682       680       730       733
       683       686       689       690       683       686       689       691
       683       686       689       692       684       683       686       687
       684       683       686       688       684       683       686       689
       685       683       686       687       685       683       686       688
       685       683       686       689       686       689       692       693
       686       689       692       694       686       689       692       695
       687       686       689       690       687       686       689       691
       687       686       689       692       688       686       689       690
       688       686       689       691       688       686       689       692
       689       692       695       696       689       692       695       697
       689       692       695       698       690       689       692       693
       690       689       692       694       690       689       692       695
       691       689       692       693       691       689       692       694
       691       689       692       695       692       695       698       699
       692       695       698       700       692       695       698       701
       693       692       695       696       693       692       695       697
       693       692       695       698       694       692       695       696
       694       692       695       697       694       692       695       698
       695       698       701       702       695       698       701       703
       696       695       698       699       696       695       698       700
       696       695       698       701       697       695       698       699
       697       695       698       700       697       695       698       701
       698       701       703       704       698       701       703       705
       699       698       701       702       699       698       701       703
       700       698       701       702       700       698       701       703
       701       703       705       706       701       703       705       707
       701       703       705       708       702       701       703       704
       702       701       703       705       703       705       708       709
       703       705       708       710       703       705       708       711
       704       703       705       706       704       703       705       707
       704       703       705       708       705       708       711       712
       705       708       711       713       705       708       711       714
       706       705       708       709       706       705       708       710
       706       705       708       711       707       705       708       709
       707       705       708       710       707       705       708       711
       708       711       714       715       708       711       714       716
       708       711       714       717       709       708       711       712
       709       708       711       713       709       708       711       714
       710       708       711       712       710       708       711       713
       710       708       711       714       711       714       717       718
       711       714       717       719       711       714       717       720
       712       711       714       715       712       711       714       716
       712       711       714       717       713       711       714       715
       713       711       714       716       713       711       714       717
       714       717       720       721       714       717       720       722
       714       717       720       723       715       714       717       718
       715       714       717       719       715       714       717       720
       716       714       717       718       716       714       717       719
       716       714       717       720       717       720       723       724
       717       720       723       725       717       720       723       726
       718       717       720       721       718       717       720       722
       718       717       720       723       719       717       720       721
       719       717       720       722       719       717       720       723
       720       723       726       727       720       723       726       728
       720       723       726       729       721       720       723       724
       721       720       723       725       721       720       723       726
       722       720       723       724       722       720       723       725
       722       720       723       726       724       723       726       727
       724       723       726       728       724       723       726       729
       725       723       726       727       725       723       726       728
       725       723       726       729       730       733       736       737
       730       733       736       738       730       733       736       739
       731       730       733       734       731       730       733       735
       731       730       733       736       732       730       733       734
       732       730       733       735       732       730       733       736
       733       736       739       740       733       736       739       741
       733       736       739       742       734       733       736       737
       734       733       736       738       734       733       736       739
       735       733       736       737       735       733       736       738
       735       733       736       739       736       739       742       743
       736       739       742       744       736       739       742       745
       737       736       739       740       737       736       739       741
       737       736       739       742       738       736       739       740
       738       736       739       741       738       736       739       742
       739       742       745       746       739       742       745       747
       739       742       745       748       740       739       742       743
       740       739       742       744       740       739       742       745
       741       739       742       743       741       739       742       744
       741       739       742       745       742       745       748       749
       742       745       748       750       743       742       745       746
       743       742       745       747       743       742       745       748
       744       742       745       746       744       742       745       747
       744       742       745       748       745       748       750       751
       745       748       750       752       746       745       748       749
       746       745       748       750       747       745       748       749
       747       745       748       750       748       750       752       753
       748       750       752       754       748       750       752       755
       749       748       750       751       749       748       750       752
       750       752       755       756       750       752       755       757
       750       752       755       758       751       750       752       753
       751       750       752       754       751       750       752       755
       752       755       758       759       752       755       758       760
       752       755       758       761       753       752       755       756
       753       752       755       757       753       752       755       758
       754       752       755       756       754       752       755       757
       754       752       755       758       755       758       761       762
       755       758       761       763       755       758       761       764
       756       755       758       759       756       755       758       760
       756       755       758       761       757       755       758       759
       757       755       758       760       757       755       758       761
       758       761       764       765       758       761       764       766
       758       761       764       767       759       758       761       762
       759       758       761       763       759       758       761       764
       760       758       761       762       760       758       761       763
       760       758       761       764       761       764       767       768
       761       764       767       769       761       764       767       770
       762       761       764       765       762       761       764       766
       762       761       764       767       763       761       764       765
       763       761       764       766       763       761       764       767
       764       767       770       771       764       767       770       772
       764       767       770       773       765       764       767       768
       765       764       767       769       765       764       767       770
       766       764       767       768       766       764       767       769
       766       764       767       770       767       770       773       774
       767       770       773       775       767       770       773       776
       768       767       770       771       768       767       770       772
       768       767       770       773       769       767       770       771
       769       767       770       772       769       767       770       773
       771       770       773       774       771       770       773       775
       771       770       773       776       772       770       773       774
       772       770       773       775       772       770       773       776
       777       778       793       794       777       778       793       795
       777       778       793       799       778       777       781       782
       778       777       781       783       778       777       781       784
       778       777       785       786       778       777       785       787
       778       777       785       788       778       777       789       790
       778       777       789       791       778       777       789       792
       778       793       799       796       779       778       777       781
       779       778       777       785       779       778       777       789
       779       778       793       794       779       778       793       795
       779       778       793       799       780       778       777       781
       780       778       777       785       780       778       777       789
       780       778       793       794       780       778       793       795
       780       778       793       799       781       777       778       793
       781       777       785       786       781       777       785       787
       781       777       785       788       781       777       789       790
       781       777       789       791       781       777       789       792
       782       781       777       785       782       781       777       789
       783       781       777       785       783       781       777       789
       784       781       777       785       784       781       777       789
       785       777       778       793       785       777       789       790
       785       777       789       791       785       777       789       792
       786       785       777       789       787       785       777       789
       788       785       777       789       789       777       778       793
       793       799       796       797       793       799       796       798
       793       799       796       800       794       793       799       796
       795       793       799       796       796       800       801       802
       796       800       801       803       796       800       801       804
       797       796       800       801       798       796       800       801
       799       796       800       801       800       801       804       805
       800       801       804       806       800       801       804       812
       801       804       806       807       801       804       812       813
       801       804       812       814       801       804       812       815
       802       801       804       805       802       801       804       806
       802       801       804       812       803       801       804       805
       803       801       804       806       803       801       804       812
       804       806       807       808       804       806       807       809
       804       812       815       816       805       804       806       807
       805       804       812       813       805       804       812       814
       805       804       812       815       806       804       812       813
       806       804       812       814       806       804       812       815
       806       807       809       810       806       807       809       811
       806       807       809       821       807       806       804       812
       807       809       821       822       807       809       821       823
       807       809       821       824       808       807       809       810
       808       807       809       811       808       807       809       821
       809       821       824       825       809       821       824       826
       809       821       824       827       810       809       821       822
       810       809       821       823       810       809       821       824
       811       809       821       822       811       809       821       823
       811       809       821       824       812       815       816       817
       812       815       816       818       813       812       815       816
       814       812       815       816       815       816       818       819
       815       816       818       820       815       816       818       868
       816       818       868       869       816       818       868       870
       816       818       868       871       817       816       818       819
       817       816       818       820       817       816       818       868
       818       868       871       872       818       868       871       873
       818       868       871       874       819       818       868       869
       819       818       868       870       819       818       868       871
       820       818       868       869       820       818       868       870
       820       818       868       871       821       824       827       828
       821       824       827       829       821       824       827       830
       822       821       824       825       822       821       824       826
       822       821       824       827       823       821       824       825
       823       821       824       826       823       821       824       827
       824       827       830       831       824       827       830       832
       824       827       830       833       825       824       827       828
       825       824       827       829       825       824       827       830
       826       824       827       828       826       824       827       829
       826       824       827       830       827       830       833       834
       827       830       833       835       827       830       833       836
       828       827       830       831       828       827       830       832
       828       827       830       833       829       827       830       831
       829       827       830       832       829       827       830       833
       830       833       836       837       830       833       836       838
       830       833       836       839       831       830       833       834
       831       830       833       835       831       830       833       836
       832       830       833       834       832       830       833       835
       832       830       833       836       833       836       839       840
       833       836       839       841       834       833       836       837
       834       833       836       838       834       833       836       839
       835       833       836       837       835       833       836       838
       835       833       836       839       836       839       841       842
       836       839       841       843       837       836       839       840
       837       836       839       841       838       836       839       840
       838       836       839       841       839       841       843       844
       839       841       843       845       839       841       843       846
       840       839       841       842       840       839       841       843
       841       843       846       847       841       843       846       848
       841       843       846       849       842       841       843       844
       842       841       843       845       842       841       843       846
       843       846       849       850       843       846       849       851
       843       846       849       852       844       843       846       847
       844       843       846       848       844       843       846       849
       845       843       846       847       845       843       846       848
       845       843       846       849       846       849       852       853
       846       849       852       854       846       849       852       855
       847       846       849       850       847       846       849       851
       847       846       849       852       848       846       849       850
       848       846       849       851       848       846       849       852
       849       852       855       856       849       852       855       857
       849       852       855       858       850       849       852       853
       850       849       852       854       850       849       852       855
       851       849       852       853       851       849       852       854
       851       849       852       855       852       855       858       859
       852       855       858       860       852       855       858       861
       853       852       855       856       853       852       855       857
       853       852       855       858       854       852       855       856
       854       852       855       857       854       852       855       858
       855       858       861       862       855       858       861       863
       855       858       861       864       856       855       858       859
       856       855       858       860       856       855       858       861
       857       855       858       859       857       855       858       860
       857       855       858       861       858       861       864       865
       858       861       864       866       858       861       864       867
       859       858       861       862       859       858       861       863
       859       858       861       864       860       858       861       862
       860       858       861       863       860       858       861       864
       862       861       864       865       862       861       864       866
       862       861       864       867       863       861       864       865
       863       861       864       866       863       861       864       867
       868       871       874       875       868       871       874       876
       868       871       874       877       869       868       871       872
       869       868       871       873       869       868       871       874
       870       868       871       872       870       868       871       873
       870       868       871       874       871       874       877       878
       871       874       877       879       871       874       877       880
       872       871       874       875       872       871       874       876
       872       871       874       877       873       871       874       875
       873       871       874       876       873       871       874       877
       874       877       880       881       874       877       880       882
       874       877       880       883       875       874       877       878
       875       874       877       879       875       874       877       880
       876       874       877       878       876       874       877       879
       876       874       877       880       877       880       883       884
       877       880       883       885       877       880       883       886
       878       877       880       881       878       877       880       882
       878       877       880       883       879       877       880       881
       879       877       880       882       879       877       880       883
       880       883       886       887       880       883       886       888
       881       880       883       884       881       880       883       885
       881       880       883       886       882       880       883       884
       882       880       883       885       882       880       883       886
       883       886       888       889       883       886       888       890
       884       883       886       887       884       883       886       888
       885       883       886       887       885       883       886       888
       886       888       890       891       886       888       890       892
       886       888       890       893       887       886       888       889
       887       886       888       890       888       890       893       894
       888       890       893       895       888       890       893       896
       889       888       890       891       889       888       890       892
       889       888       890       893       890       893       896       897
       890       893       896       898       890       893       896       899
       891       890       893       894       891       890       893       895
       891       890       893       896       892       890       893       894
       892       890       893       895       892       890       893       896
       893       896       899       900       893       896       899       901
       893       896       899       902       894       893       896       897
       894       893       896       898       894       893       896       899
       895       893       896       897       895       893       896       898
       895       893       896       899       896       899       902       903
       896       899       902       904       896       899       902       905
       897       896       899       900       897       896       899       901
       897       896       899       902       898       896       899       900
       898       896       899       901       898       896       899       902
       899       902       905       906       899       902       905       907
       899       902       905       908       900       899       902       903
       900       899       902       904       900       899       902       905
       901       899       902       903       901       899       902       904
       901       899       902       905       902       905       908       909
       902       905       908       910       902       905       908       911
       903       902       905       906       903       902       905       907
       903       902       905       908       904       902       905       906
       904       902       905       907       904       902       905       908
       905       908       911       912       905       908       911       913
       905       908       911       914       906       905       908       909
       906       905       908       910       906       905       908       911
       907       905       908       909       907       905       908       910
       907       905       908       911       909       908       911       912
       909       908       911       913       909       908       911       914
       910       908       911       912       910       908       911       913
       910       908       911       914       915       916       931       932
       915       916       931       933       915       916       931       937
       916       915       919       920       916       915       919       921
       916       915       919       922       916       915       923       924
       916       915       923       925       916       915       923       926
       916       915       927       928       916       915       927       929
       916       915       927       930       916       931       937       934
       917       916       915       919       917       916       915       923
       917       916       915       927       917       916       931       932
       917       916       931       933       917       916       931       937
       918       916       915       919       918       916       915       923
       918       916       915       927       918       916       931       932
       918       916       931       933       918       916       931       937
       919       915       916       931       919       915       923       924
       919       915       923       925       919       915       923       926
       919       915       927       928       919       915       927       929
       919       915       927       930       920       919       915       923
       920       919       915       927       921       919       915       923
       921       919       915       927       922       919       915       923
       922       919       915       927       923       915       916       931
       923       915       927       928       923       915       927       929
       923       915       927       930       924       923       915       927
       925       923       915       927       926       923       915       927
       927       915       916       931       931       937       934       935
       931       937       934       936       931       937       934       938
       932       931       937       934       933       931       937       934
       934       938       939       940       934       938       939       941
       934       938       939       942       935       934       938       939
       936       934       938       939       937       934       938       939
       938       939       942       943       938       939       942       944
       938       939       942       950       939       942       944       945
       939       942       950       951       939       942       950       952
       939       942       950       953       940       939       942       943
       940       939       942       944       940       939       942       950
       941       939       942       943       941       939       942       944
       941       939       942       950       942       944       945       946
       942       944       945       947       942       950       953       954
       943       942       944       945       943       942       950       951
       943       942       950       952       943       942       950       953
       944       942       950       951       944       942       950       952
       944       942       950       953       944       945       947       948
       944       945       947       949       944       945       947       959
       945       944       942       950       945       947       959       960
       945       947       959       961       945       947       959       962
       946       945       947       948       946       945       947       949
       946       945       947       959       947       959       962       963
       947       959       962       964       947       959       962       965
       948       947       959       960       948       947       959       961
       948       947       959       962       949       947       959       960
       949       947       959       961       949       947       959       962
       950       953       954       955       950       953       954       956
       951       950       953       954       952       950       953       954
       953       954       956       957       953       954       956       958
       953       954       956      1006       954       956      1006      1007
       954       956      1006      1008       954       956      1006      1009
       955       954       956       957       955       954       956       958
       955       954       956      1006       956      1006      1009      1010
       956      1006      1009      1011       956      1006      1009      1012
       957       956      1006      1007       957       956      1006      1008
       957       956      1006      1009       958       956      1006      1007
       958       956      1006      1008       958       956      1006      1009
       959       962       965       966       959       962       965       967
       959       962       965       968       960       959       962       963
       960       959       962       964       960       959       962       965
       961       959       962       963       961       959       962       964
       961       959       962       965       962       965       968       969
       962       965       968       970       962       965       968       971
       963       962       965       966       963       962       965       967
       963       962       965       968       964       962       965       966
       964       962       965       967       964       962       965       968
       965       968       971       972       965       968       971       973
       965       968       971       974       966       965       968       969
       966       965       968       970       966       965       968       971
       967       965       968       969       967       965       968       970
       967       965       968       971       968       971       974       975
       968       971       974       976       968       971       974       977
       969       968       971       972       969       968       971       973
       969       968       971       974       970       968       971       972
       970       968       971       973       970       968       971       974
       971       974       977       978       971       974       977       979
       972       971       974       975       972       971       974       976
       972       971       974       977       973       971       974       975
       973       971       974       976       973       971       974       977
       974       977       979       980       974       977       979       981
       975       974       977       978       975       974       977       979
       976       974       977       978       976       974       977       979
       977       979       981       982       977       979       981       983
       977       979       981       984       978       977       979       980
       978       977       979       981       979       981       984       985
       979       981       984       986       979       981       984       987
       980       979       981       982       980       979       981       983
       980       979       981       984       981       984       987       988
       981       984       987       989       981       984       987       990
       982       981       984       985       982       981       984       986
       982       981       984       987       983       981       984       985
       983       981       984       986       983       981       984       987
       984       987       990       991       984       987       990       992
       984       987       990       993       985       984       987       988
       985       984       987       989       985       984       987       990
       986       984       987       988       986       984       987       989
       986       984       987       990       987       990       993       994
       987       990       993       995       987       990       993       996
       988       987       990       991       988       987       990       992
       988       987       990       993       989       987       990       991
       989       987       990       992       989       987       990       993
       990       993       996       997       990       993       996       998
       990       993       996       999       991       990       993       994
       991       990       993       995       991       990       993       996
       992       990       993       994       992       990       993       995
       992       990       993       996       993       996       999      1000
       993       996       999      1001       993       996       999      1002
       994       993       996       997       994       993       996       998
       994       993       996       999       995       993       996       997
       995       993       996       998       995       993       996       999
       996       999      1002      1003       996       999      1002      1004
       996       999      1002      1005       997       996       999      1000
       997       996       999      1001       997       996       999      1002
       998       996       999      1000       998       996       999      1001
       998       996       999      1002      1000       999      1002      1003
      1000       999      1002      1004      1000       999      1002      1005
      1001       999      1002      1003      1001       999      1002      1004
      1001       999      1002      1005      1006      1009      1012      1013
      1006      1009      1012      1014      1006      1009      1012      1015
      1007      1006      1009      1010      1007      1006      1009      1011
      1007      1006      1009      1012      1008      1006      1009      1010
      1008      1006      1009      1011      1008      1006      1009      1012
      1009      1012      1015      1016      1009      1012      1015      1017
      1009      1012      1015      1018      1010      1009      1012      1013
      1010      1009      1012      1014      1010      1009      1012      1015
      1011      1009      1012      1013      1011      1009      1012      1014
      1011      1009      1012      1015      1012      1015      1018      1019
      1012      1015      1018      1020      1012      1015      1018      1021
      1013      1012      1015      1016      1013      1012      1015      1017
      1013      1012      1015      1018      1014      1012      1015      1016
      1014      1012      1015      1017      1014      1012      1015      1018
      1015      1018      1021      1022      1015      1018      1021      1023
      1015      1018      1021      1024      1016      1015      1018      1019
      1016      1015      1018      1020      1016      1015      1018      1021
      1017      1015      1018      1019      1017      1015      1018      1020
      1017      1015      1018      1021      1018      1021      1024      1025
      1018      1021      1024      1026      1019      1018      1021      1022
      1019      1018      1021      1023      1019      1018      1021      1024
      1020      1018      1021      1022      1020      1018      1021      1023
      1020      1018      1021      1024      1021      1024      1026      1027
      1021      1024      1026      1028      1022      1021      1024      1025
      1022      1021      1024      1026      1023      1021      1024      1025
      1023      1021      1024      1026      1024      1026      1028      1029
      1024      1026      1028      1030      1024      1026      1028      1031
      1025      1024      1026      1027      1025      1024      1026      1028
      1026      1028      1031      1032      1026      1028      1031      1033
      1026      1028      1031      1034      1027      1026      1028      1029
      1027      1026      1028      1030      1027      1026      1028      1031
      1028      1031      1034      1035      1028      1031      1034      1036
      1028      1031      1034      1037      1029      1028      1031      1032
      1029      1028      1031      1033      1029      1028      1031      1034
      1030      1028      1031      1032      1030      1028      1031      1033
      1030      1028      1031      1034      1031      1034      1037      1038
      1031      1034      1037      1039      1031      1034      1037      1040
      1032      1031      1034      1035      1032      1031      1034      1036
      1032      1031      1034      1037      1033      1031      1034      1035
      1033      1031      1034      1036      1033      1031      1034      1037
      1034      1037      1040      1041      1034      1037      1040      1042
      1034      1037      1040      1043      1035      1034      1037      1038
      1035      1034      1037      1039      1035      1034      1037      1040
      1036      1034      1037      1038      1036      1034      1037      1039
      1036      1034      1037      1040      1037      1040      1043      1044
      1037      1040      1043      1045      1037      1040      1043      1046
      1038      1037      1040      1041      1038      1037      1040      1042
      1038      1037      1040      1043      1039      1037      1040      1041
      1039      1037      1040      1042      1039      1037      1040      1043
      1040      1043      1046      1047      1040      1043      1046      1048
      1040      1043      1046      1049      1041      1040      1043      1044
      1041      1040      1043      1045      1041      1040      1043      1046
      1042      1040      1043      1044      1042      1040      1043      1045
      1042      1040      1043      1046      1043      1046      1049      1050
      1043      1046      1049      1051      1043      1046      1049      1052
      1044      1043      1046      1047      1044      1043      1046      1048
      1044      1043      1046      1049      1045      1043      1046      1047
      1045      1043      1046      1048      1045      1043      1046      1049
      1047      1046      1049      1050      1047      1046      1049      1051
      1047      1046      1049      1052      1048      1046      1049      1050
      1048      1046      1049      1051      1048      1046      1049      1052
      1053      1054      1069      1070      1053      1054      1069      1071
      1053      1054      1069      1075      1054      1053      1057      1058
      1054      1053      1057      1059      1054      1053      1057      1060
      1054      1053      1061      1062      1054      1053      1061      1063
      1054      1053      1061      1064      1054      1053      1065      1066
      1054      1053      1065      1067      1054      1053      1065      1068
      1054      1069      1075      1072      1055      1054      1053      1057
      1055      1054      1053      1061      1055      1054      1053      1065
      1055      1054      1069      1070      1055      1054      1069      1071
      1055      1054      1069      1075      1056      1054      1053      1057
      1056      1054      1053      1061      1056      1054      1053      1065
      1056      1054      1069      1070      1056      1054      1069      1071
      1056      1054      1069      1075      1057      1053      1054      1069
      1057      1053      1061      1062      1057      1053      1061      1063
      1057      1053      1061      1064      1057      1053      1065      1066
      1057      1053      1065      1067      1057      1053      1065      1068
      1058      1057      1053      1061      1058      1057      1053      1065
      1059      1057      1053      1061      1059      1057      1053      1065
      1060      1057      1053      1061      1060      1057      1053      1065
      1061      1053      1054      1069      1061      1053      1065      1066
      1061      1053      1065      1067      1061      1053      1065      1068
      1062      1061      1053      1065      1063      1061      1053      1065
      1064      1061      1053      1065      1065      1053      1054      1069
      1069      1075      1072      1073      1069      1075      1072      1074
      1069      1075      1072      1076      1070      1069      1075      1072
      1071      1069      1075      1072      1072      1076      1077      1078
      1072      1076      1077      1079      1072      1076      1077      1080
      1073      1072      1076      1077      1074      1072      1076      1077
      1075      1072      1076      1077      1076      1077      1080      1081
      1076      1077      1080      1082      1076      1077      1080      1088
      1077      1080      1082      1083      1077      1080      1088      1089
      1077      1080      1088      1090      1077      1080      1088      1091
      1078      1077      1080      1081      1078      1077      1080      1082
      1078      1077      1080      1088      1079      1077      1080      1081
      1079      1077      1080      1082      1079      1077      1080      1088
      1080      1082      1083      1084      1080      1082      1083      1085
      1080      1088      1091      1092      1081      1080      1082      1083
      1081      1080      1088      1089      1081      1080      1088      1090
      1081      1080      1088      1091      1082      1080      1088      1089
      1082      1080      1088      1090      1082      1080      1088      1091
      1082      1083      1085      1086      1082      1083      1085      1087
      1082      1083      1085      1097      1083      1082      1080      1088
      1083      1085      1097      1098      1083      1085      1097      1099
      1083      1085      1097      1100      1084      1083      1085      1086
      1084      1083      1085      1087      1084      1083      1085      1097
      1085      1097      1100      1101      1085      1097      1100      1102
      1085      1097      1100      1103      1086      1085      1097      1098
      1086      1085      1097      1099      1086      1085      1097      1100
      1087      1085      1097      1098      1087      1085      1097      1099
      1087      1085      1097      1100      1088      1091      1092      1093
      1088      1091      1092      1094      1089      1088      1091      1092
      1090      1088      1091      1092      1091      1092      1094      1095
      1091      1092      1094      1096      1091      1092      1094      1144
      1092      1094      1144      1145      1092      1094      1144      1146
      1092      1094      1144      1147      1093      1092      1094      1095
      1093      1092      1094      1096      1093      1092      1094      1144
      1094      1144      1147      1148      1094      1144      1147      1149
      1094      1144      1147      1150      1095      1094      1144      1145
      1095      1094      1144      1146      1095      1094      1144      1147
      1096      1094      1144      1145      1096      1094      1144      1146
      1096      1094      1144      1147      1097      1100      1103      1104
      1097      1100      1103      1105      1097      1100      1103      1106
      1098      1097      1100      1101      1098      1097      1100      1102
      1098      1097      1100      1103      1099      1097      1100      1101
      1099      1097      1100      1102      1099      1097      1100      1103
      1100      1103      1106      1107      1100      1103      1106      1108
      1100      1103      1106      1109      1101      1100      1103      1104
      1101      1100      1103      1105      1101      1100      1103      1106
      1102      1100      1103      1104      1102      1100      1103      1105
      1102      1100      1103      1106      1103      1106      1109      1110
      1103      1106      1109      1111      1103      1106      1109      1112
      1104      1103      1106      1107      1104      1103      1106      1108
      1104      1103      1106      1109      1105      1103      1106      1107
      1105      1103      1106      1108      1105      1103      1106      1109
      1106      1109      1112      1113      1106      1109      1112      1114
      1106      1109      1112      1115      1107      1106      1109      1110
      1107      1106      1109      1111      1107      1106      1109      1112
      1108      1106      1109      1110      1108      1106      1109      1111
      1108      1106      1109      1112      1109      1112      1115      1116
      1109      1112      1115      1117      1110      1109      1112      1113
      1110      1109      1112      1114      1110      1109      1112      1115
      1111      1109      1112      1113      1111      1109      1112      1114
      1111      1109      1112      1115      1112      1115      1117      1118
      1112      1115      1117      1119      1113      1112      1115      1116
      1113      1112      1115      1117      1114      1112      1115      1116
      1114      1112      1115      1117      1115      1117      1119      1120
      1115      1117      1119      1121      1115      1117      1119      1122
      1116      1115      1117      1118      1116      1115      1117      1119
      1117      1119      1122      1123      1117      1119      1122      1124
      1117      1119      1122      1125      1118      1117      1119      1120
      1118      1117      1119      1121      1118      1117      1119      1122
      1119      1122      1125      1126      1119      1122      1125      1127
      1119      1122      1125      1128      1120      1119      1122      1123
      1120      1119      1122      1124      1120      1119      1122      1125
      1121      1119      1122      1123      1121      1119      1122      1124
      1121      1119      1122      1125      1122      1125      1128      1129
      1122      1125      1128      1130      1122      1125      1128      1131
      1123      1122      1125      1126      1123      1122      1125      1127
      1123      1122      1125      1128      1124      1122      1125      1126
      1124      1122      1125      1127      1124      1122      1125      1128
      1125      1128      1131      1132      1125      1128      1131      1133
      1125      1128      1131      1134      1126      1125      1128      1129
      1126      1125      1128      1130      1126      1125      1128      1131
      1127      1125      1128      1129      1127      1125      1128      1130
      1127      1125      1128      1131      1128      1131      1134      1135
      1128      1131      1134      1136      1128      1131      1134      1137
      1129      1128      1131      1132      1129      1128      1131      1133
      1129      1128      1131      1134      1130      1128      1131      1132
      1130      1128      1131      1133      1130      1128      1131      1134
      1131      1134      1137      1138      1131      1134      1137      1139
      1131      1134      1137      1140      1132      1131      1134      1135
      1132      1131      1134      1136      1132      1131      1134      1137
      1133      1131      1134      1135      1133      1131      1134      1136
      1133      1131      1134      1137      1134      1137      1140      1141
      1134      1137      1140      1142      1134      1137      1140      1143
      1135      1134      1137      1138      1135      1134      1137      1139
      1135      1134      1137      1140      1136      1134      1137      1138
      1136      1134      1137      1139      1136      1134      1137      1140
      1138      1137      1140      1141      1138      1137      1140      1142
      1138      1137      1140      1143      1139      1137      1140      1141
      1139      1137      1140      1142      1139      1137      1140      1143
      1144      1147      1150      1151      1144      1147      1150      1152
      1144      1147      1150      1153      1145      1144      1147      1148
      1145      1144      1147      1149      1145      1144      1147      1150
      1146      1144      1147      1148      1146      1144      1147      1149
      1146      1144      1147      1150      1147      1150      1153      1154
      1147      1150      1153      1155      1147      1150      1153      1156
      1148      1147      1150      1151      1148      1147      1150      1152
      1148      1147      1150      1153      1149      1147      1150      1151
      1149      1147      1150      1152      1149      1147      1150      1153
      1150      1153      1156      1157      1150      1153      1156      1158
      1150      1153      1156      1159      1151      1150      1153      1154
      1151      1150      1153      1155      1151      1150      1153      1156
      1152      1150      1153      1154      1152      1150      1153      1155
      1152      1150      1153      1156      1153      1156      1159      1160
      1153      1156      1159      1161      1153      1156      1159      1162
      1154      1153      1156      1157      1154      1153      1156      1158
      1154      1153      1156      1159      1155      1153      1156      1157
      1155      1153      1156      1158      1155      1153      1156      1159
      1156      1159      1162      1163      1156      1159      1162      1164
      1157      1156      1159      1160      1157      1156      1159      1161
      1157      1156      1159      1162      1158      1156      1159      1160
      1158      1156      1159      1161      1158      1156      1159      1162
      1159      1162      1164      1165      1159      1162      1164      1166
      1160      1159      1162      1163      1160      1159      1162      1164
      1161      1159      1162      1163      1161      1159      1162      1164
      1162      1164      1166      1167      1162      1164      1166      1168
      1162      1164      1166      1169      1163      1162      1164      1165
      1163      1162      1164      1166      1164      1166      1169      1170
      1164      1166      1169      1171      1164      1166      1169      1172
      1165      1164      1166      1167      1165      1164      1166      1168
      1165      1164      1166      1169      1166      1169      1172      1173
      1166      1169      1172      1174      1166      1169      1172      1175
      1167      1166      1169      1170      1167      1166      1169      1171
      1167      1166      1169      1172      1168      1166      1169      1170
      1168      1166      1169      1171      1168      1166      1169      1172
      1169      1172      1175      1176      1169      1172      1175      1177
      1169      1172      1175      1178      1170      1169      1172      1173
      1170      1169      1172      1174      1170      1169      1172      1175
      1171      1169      1172      1173      1171      1169      1172      1174
      1171      1169      1172      1175      1172      1175      1178      1179
      1172      1175      1178      1180      1172      1175      1178      1181
      1173      1172      1175      1176      1173      1172      1175      1177
      1173      1172      1175      1178      1174      1172      1175      1176
      1174      1172      1175      1177      1174      1172      1175      1178
      1175      1178      1181      1182      1175      1178      1181      1183
      1175      1178      1181      1184      1176      1175      1178      1179
      1176      1175      1178      1180      1176      1175      1178      1181
      1177      1175      1178      1179      1177      1175      1178      1180
      1177      1175      1178      1181      1178      1181      1184      1185
      1178      1181      1184      1186      1178      1181      1184      1187
      1179      1178      1181      1182      1179      1178      1181      1183
      1179      1178      1181      1184      1180      1178      1181      1182
      1180      1178      1181      1183      1180      1178      1181      1184
      1181      1184      1187      1188      1181      1184      1187      1189
      1181      1184      1187      1190      1182      1181      1184      1185
      1182      1181      1184      1186      1182      1181      1184      1187
      1183      1181      1184      1185      1183      1181      1184      1186
      1183      1181      1184      1187      1185      1184      1187      1188
      1185      1184      1187      1189      1185      1184      1187      1190
      1186      1184      1187      1188      1186      1184      1187      1189
      1186      1184      1187      1190      1191      1192      1207      1208
      1191      1192      1207      1209      1191      1192      1207      1213
      1192      1191      1195      1196      1192      1191      1195      1197
      1192      1191      1195      1198      1192      1191      1199      1200
      1192      1191      1199      1201      1192      1191      1199      1202
      1192      1191      1203      1204      1192      1191      1203      1205
      1192      1191      1203      1206      1192      1207      1213      1210
      1193      1192      1191      1195      1193      1192      1191      1199
      1193      1192      1191      1203      1193      1192      1207      1208
      1193      1192      1207      1209      1193      1192      1207      1213
      1194      1192      1191      1195      1194      1192      1191      1199
      1194      1192      1191      1203      1194      1192      1207      1208
      1194      1192      1207      1209      1194      1192      1207      1213
      1195      1191      1192      1207      1195      1191      1199      1200
      1195      1191      1199      1201      1195      1191      1199      1202
      1195      1191      1203      1204      1195      1191      1203      1205
      1195      1191      1203      1206      1196      1195      1191      1199
      1196      1195      1191      1203      1197      1195      1191      1199
      1197      1195      1191      1203      1198      1195      1191      1199
      1198      1195      1191      1203      1199      1191      1192      1207
      1199      1191      1203      1204      1199      1191      1203      1205
      1199      1191      1203      1206      1200      1199      1191      1203
      1201      1199      1191      1203      1202      1199      1191      1203
      1203      1191      1192      1207      1207      1213      1210      1211
      1207      1213      1210      1212      1207      1213      1210      1214
      1208      1207      1213      1210      1209      1207      1213      1210
      1210      1214      1215      1216      1210      1214      1215      1217
      1210      1214      1215      1218      1211      1210      1214      1215
      1212      1210      1214      1215      1213      1210      1214      1215
      1214      1215      1218      1219      1214      1215      1218      1220
      1214      1215      1218      1226      1215      1218      1220      1221
      1215      1218      1226      1227      1215      1218      1226      1228
      1215      1218      1226      1229      1216      1215      1218      1219
      1216      1215      1218      1220      1216      1215      1218      1226
      1217      1215      1218      1219      1217      1215      1218      1220
      1217      1215      1218      1226      1218      1220      1221      1222
      1218      1220      1221      1223      1218      1226      1229      1230
      1219      1218      1220      1221      1219      1218      1226      1227
      1219      1218      1226      1228      1219      1218      1226      1229
      1220      1218      1226      1227      1220      1218      1226      1228
      1220      1218      1226      1229      1220      1221      1223      1224
      1220      1221      1223      1225      1220      1221      1223      1235
      1221      1220      1218      1226      1221      1223      1235      1236
      1221      1223      1235      1237      1221      1223      1235      1238
      1222      1221      1223      1224      1222      1221      1223      1225
      1222      1221      1223      1235      1223      1235      1238      1239
      1223      1235      1238      1240      1223      1235      1238      1241
      1224      1223      1235      1236      1224      1223      1235      1237
      1224      1223      1235      1238      1225      1223      1235      1236
      1225      1223      1235      1237      1225      1223      1235      1238
      1226      1229      1230      1231      1226      1229      1230      1232
      1227      1226      1229      1230      1228      1226      1229      1230
      1229      1230      1232      1233      1229      1230      1232      1234
      1229      1230      1232      1282      1230      1232      1282      1283
      1230      1232      1282      1284      1230      1232      1282      1285
      1231      1230      1232      1233      1231      1230      1232      1234
      1231      1230      1232      1282      1232      1282      1285      1286
      1232      1282      1285      1287      1232      1282      1285      1288
      1233      1232      1282      1283      1233      1232      1282      1284
      1233      1232      1282      1285      1234      1232      1282      1283
      1234      1232      1282      1284      1234      1232      1282      1285
      1235      1238      1241      1242      1235      1238      1241      1243
      1235      1238      1241      1244      1236      1235      1238      1239
      1236      1235      1238      1240      1236      1235      1238      1241
      1237      1235      1238      1239      1237      1235      1238      1240
      1237      1235      1238      1241      1238      1241      1244      1245
      1238      1241      1244      1246      1238      1241      1244      1247
      1239      1238      1241      1242      1239      1238      1241      1243
      1239      1238      1241      1244      1240      1238      1241      1242
      1240      1238      1241      1243      1240      1238      1241      1244
      1241      1244      1247      1248      1241      1244      1247      1249
      1241      1244      1247      1250      1242      1241      1244      1245
      1242      1241      1244      1246      1242      1241      1244      1247
      1243      1241      1244      1245      1243      1241      1244      1246
      1243      1241      1244      1247      1244      1247      1250      1251
      1244      1247      1250      1252      1244      1247      1250      1253
      1245      1244      1247      1248      1245      1244      1247      1249
      1245      1244      1247      1250      1246      1244      1247      1248
      1246      1244      1247      1249      1246      1244      1247      1250
      1247      1250      1253      1254      1247      1250      1253      1255
      1248      1247      1250      1251      1248      1247      1250      1252
      1248      1247      1250      1253      1249      1247      1250      1251
      1249      1247      1250      1252      1249      1247      1250      1253
      1250      1253      1255      1256      1250      1253      1255      1257
      1251      1250      1253      1254      1251      1250      1253      1255
      1252      1250      1253      1254      1252      1250      1253      1255
      1253      1255      1257      1258      1253      1255      1257      1259
      1253      1255      1257      1260      1254      1253      1255      1256
      1254      1253      1255      1257      1255      1257      1260      1261
      1255      1257      1260      1262      1255      1257      1260      1263
      1256      1255      1257      1258      1256      1255      1257      1259
      1256      1255      1257      1260      1257      1260      1263      1264
      1257      1260      1263      1265      1257      1260      1263      1266
      1258      1257      1260      1261      1258      1257      1260      1262
      1258      1257      1260      1263      1259      1257      1260      1261
      1259      1257      1260      1262      1259      1257      1260      1263
      1260      1263      1266      1267      1260      1263      1266      1268
      1260      1263      1266      1269      1261      1260      1263      1264
      1261      1260      1263      1265      1261      1260      1263      1266
      1262      1260      1263      1264      1262      1260      1263      1265
      1262      1260      1263      1266      1263      1266      1269      1270
      1263      1266      1269      1271      1263      1266      1269      1272
      1264      1263      1266      1267      1264      1263      1266      1268
      1264      1263      1266      1269      1265      1263      1266      1267
      1265      1263      1266      1268      1265      1263      1266      1269
      1266      1269      1272      1273      1266      1269      1272      1274
      1266      1269      1272      1275      1267      1266      1269      1270
      1267      1266      1269      1271      1267      1266      1269      1272
      1268      1266      1269      1270      1268      1266      1269      1271
      1268      1266      1269      1272      1269      1272      1275      1276
      1269      1272      1275      1277      1269      1272      1275      1278
      1270      1269      1272      1273      1270      1269      1272      1274
      1270      1269      1272      1275      1271      1269      1272      1273
      1271      1269      1272      1274      1271      1269      1272      1275
      1272      1275      1278      1279      1272      1275      1278      1280
      1272      1275      1278      1281      1273      1272      1275      1276
      1273      1272      1275      1277      1273      1272      1275      1278
      1274      1272      1275      1276      1274      1272      1275      1277
      1274      1272      1275      1278      1276      1275      1278      1279
      1276      1275      1278      1280      1276      1275      1278      1281
      1277      1275      1278      1279      1277      1275      1278      1280
      1277      1275      1278      1281      1282      1285      1288      1289
      1282      1285      1288      1290      1282      1285      1288      1291
      1283      1282      1285      1286      1283      1282      1285      1287
      1283      1282      1285      1288      1284      1282      1285      1286
      1284      1282      1285      1287      1284      1282      1285      1288
      1285      1288      1291      1292      1285      1288      1291      1293
      1285      1288      1291      1294      1286      1285      1288      1289
      1286      1285      1288      1290      1286      1285      1288      1291
      1287      1285      1288      1289      1287      1285      1288      1290
      1287      1285      1288      1291      1288      1291      1294      1295
      1288      1291      1294      1296      1288      1291      1294      1297
      1289      1288      1291      1292      1289      1288      1291      1293
      1289      1288      1291      1294      1290      1288      1291      1292
      1290      1288      1291      1293      1290      1288      1291      1294
      1291      1294      1297      1298      1291      1294      1297      1299
      1291      1294      1297      1300      1292      1291      1294      1295
      1292      1291      1294      1296      1292      1291      1294      1297
      1293      1291      1294      1295      1293      1291      1294      1296
      1293      1291      1294      1297      1294      1297      1300      1301
      1294      1297      1300      1302      1295      1294      1297      1298
      1295      1294      1297      1299      1295      1294      1297      1300
      1296      1294      1297      1298      1296      1294      1297      1299
      1296      1294      1297      1300      1297      1300      1302      1303
      1297      1300      1302      1304      1298      1297      1300      1301
      1298      1297      1300      1302      1299      1297      1300      1301
      1299      1297      1300      1302      1300      1302      1304      1305
      1300      1302      1304      1306      1300      1302      1304      1307
      1301      1300      1302      1303      1301      1300      1302      1304
      1302      1304      1307      1308      1302      1304      1307      1309
      1302      1304      1307      1310      1303      1302      1304      1305
      1303      1302      1304      1306      1303      1302      1304      1307
      1304      1307      1310      1311      1304      1307      1310      1312
      1304      1307      1310      1313      1305      1304      1307      1308
      1305      1304      1307      1309      1305      1304      1307      1310
      1306      1304      1307      1308      1306      1304      1307      1309
      1306      1304      1307      1310      1307      1310      1313      1314
      1307      1310      1313      1315      1307      1310      1313      1316
      1308      1307      1310      1311      1308      1307      1310      1312
      1308      1307      1310      1313      1309      1307      1310      1311
      1309      1307      1310      1312      1309      1307      1310      1313
      1310      1313      1316      1317      1310      1313      1316      1318
      1310      1313      1316      1319      1311      1310      1313      1314
      1311      1310      1313      1315      1311      1310      1313      1316
      1312      1310      1313      1314      1312      1310      1313      1315
      1312      1310      1313      1316      1313      1316      1319      1320
      1313      1316      1319      1321      1313      1316      1319      1322
      1314      1313      1316      1317      1314      1313      1316      1318
      1314      1313      1316      1319      1315      1313      1316      1317
      1315      1313      1316      1318      1315      1313      1316      1319
      1316      1319      1322      1323      1316      1319      1322      1324
      1316      1319      1322      1325      1317      1316      1319      1320
      1317      1316      1319      1321      1317      1316      1319      1322
      1318      1316      1319      1320      1318      1316      1319      1321
      1318      1316      1319      1322      1319      1322      1325      1326
      1319      1322      1325      1327      1319      1322      1325      1328
      1320      1319      1322      1323      1320      1319      1322      1324
      1320      1319      1322      1325      1321      1319      1322      1323
      1321      1319      1322      1324      1321      1319      1322      1325
      1323      1322      1325      1326      1323      1322      1325      1327
      1323      1322      1325      1328      1324      1322      1325      1326
      1324      1322      1325      1327      1324      1322      1325      1328
      1329      1330      1345      1346      1329      1330      1345      1347
      1329      1330      1345      1351      1330      1329      1333      1334
      1330      1329      1333      1335      1330      1329      1333      1336
      1330      1329      1337      1338      1330      1329      1337      1339
      1330      1329      1337      1340      1330      1329      1341      1342
      1330      1329      1341      1343      1330      1329      1341      1344
      1330      1345      1351      1348      1331      1330      1329      1333
      1331      1330      1329      1337      1331      1330      1329      1341
      1331      1330      1345      1346      1331      1330      1345      1347
      1331      1330      1345      1351      1332      1330      1329      1333
      1332      1330      1329      1337      1332      1330      1329      1341
      1332      1330      1345      1346      1332      1330      1345      1347
      1332      1330      1345      1351      1333      1329      1330      1345
      1333      1329      1337      1338      1333      1329      1337      1339
      1333      1329      1337      1340      1333      1329      1341      1342
      1333      1329      1341      1343      1333      1329      1341      1344
      1334      1333      1329      1337      1334      1333      1329      1341
      1335      1333      1329      1337      1335      1333      1329      1341
      1336      1333      1329      1337      1336      1333      1329      1341
      1337      1329      1330      1345      1337      1329      1341      1342
      1337      1329      1341      1343      1337      1329      1341      1344
      1338      1337      1329      1341      1339      1337      1329      1341
      1340      1337      1329      1341      1341      1329      1330      1345
      1345      1351      1348      1349      1345      1351      1348      1350
      1345      1351      1348      1352      1346      1345      1351      1348
      1347      1345      1351      1348      1348      1352      1353      1354
      1348      1352      1353      1355      1348      1352      1353      1356
      1349      1348      1352      1353      1350      1348      1352      1353
      1351      1348      1352      1353      1352      1353      1356      1357
      1352      1353      1356      1358      1352      1353      1356      1364
      1353      1356      1358      1359      1353      1356      1364      1365
      1353      1356      1364      1366      1353      1356      1364      1367
      1354      1353      1356      1357      1354      1353      1356      1358
      1354      1353      1356      1364      1355      1353      1356      1357
      1355      1353      1356      1358      1355      1353      1356      1364
      1356      1358      1359      1360      1356      1358      1359      1361
      1356      1364      1367      1368      1357      1356      1358      1359
      1357      1356      1364      1365      1357      1356      1364      1366
      1357      1356      1364      1367      1358      1356      1364      1365
      1358      1356      1364      1366      1358      1356      1364      1367
      1358      1359      1361      1362      1358      1359      1361      1363
      1358      1359      1361      1373      1359      1358      1356      1364
      1359      1361      1373      1374      1359      1361      1373      1375
      1359      1361      1373      1376      1360      1359      1361      1362
      1360      1359      1361      1363      1360      1359      1361      1373
      1361      1373      1376      1377      1361      1373      1376      1378
      1361      1373      1376      1379      1362      1361      1373      1374
      1362      1361      1373      1375      1362      1361      1373      1376
      1363      1361      1373      1374      1363      1361      1373      1375
      1363      1361      1373      1376      1364      1367      1368      1369
      1364      1367      1368      1370      1365      1364      1367      1368
      1366      1364      1367      1368      1367      1368      1370      1371
      1367      1368      1370      1372      1367      1368      1370      1420
      1368      1370      1420      1421      1368      1370      1420      1422
      1368      1370      1420      1423      1369      1368      1370      1371
      1369      1368      1370      1372      1369      1368      1370      1420
      1370      1420      1423      1424      1370      1420      1423      1425
      1370      1420      1423      1426      1371      1370      1420      1421
      1371      1370      1420      1422      1371      1370      1420      1423
      1372      1370      1420      1421      1372      1370      1420      1422
      1372      1370      1420      1423      1373      1376      1379      1380
      1373      1376      1379      1381      1373      1376      1379      1382
      1374      1373      1376      1377      1374      1373      1376      1378
      1374      1373      1376      1379      1375      1373      1376      1377
      1375      1373      1376      1378      1375      1373      1376      1379
      1376      1379      1382      1383      1376      1379      1382      1384
      1376      1379      1382      1385      1377      1376      1379      1380
      1377      1376      1379      1381      1377      1376      1379      1382
      1378      1376      1379      1380      1378      1376      1379      1381
      1378      1376      1379      1382      1379      1382      1385      1386
      1379      1382      1385      1387      1379      1382      1385      1388
      1380      1379      1382      1383      1380      1379      1382      1384
      1380      1379      1382      1385      1381      1379      1382      1383
      1381      1379      1382      1384      1381      1379      1382      1385
      1382      1385      1388      1389      1382      1385      1388      1390
      1382      1385      1388      1391      1383      1382      1385      1386
      1383      1382      1385      1387      1383      1382      1385      1388
      1384      1382      1385      1386      1384      1382      1385      1387
      1384      1382      1385      1388      1385      1388      1391      1392
      1385      1388      1391      1393      1386      1385      1388      1389
      1386      1385      1388      1390      1386      1385      1388      1391
      1387      1385      1388      1389      1387      1385      1388      1390
      1387      1385      1388      1391      1388      1391      1393      1394
      1388      1391      1393      1395      1389      1388      1391      1392
      1389      1388      1391      1393      1390      1388      1391      1392
      1390      1388      1391      1393      1391      1393      1395      1396
      1391      1393      1395      1397      1391      1393      1395      1398
      1392      1391      1393      1394      1392      1391      1393      1395
      1393      1395      1398      1399      1393      1395      1398      1400
      1393      1395      1398      1401      1394      1393      1395      1396
      1394      1393      1395      1397      1394      1393      1395      1398
      1395      1398      1401      1402      1395      1398      1401      1403
      1395      1398      1401      1404      1396      1395      1398      1399
      1396      1395      1398      1400      1396      1395      1398      1401
      1397      1395      1398      1399      1397      1395      1398      1400
      1397      1395      1398      1401      1398      1401      1404      1405
      1398      1401      1404      1406      1398      1401      1404      1407
      1399      1398      1401      1402      1399      1398      1401      1403
      1399      1398      1401      1404      1400      1398      1401      1402
      1400      1398      1401      1403      1400      1398      1401      1404
      1401      1404      1407      1408      1401      1404      1407      1409
      1401      1404      1407      1410      1402      1401      1404      1405
      1402      1401      1404      1406      1402      1401      1404      1407
      1403      1401      1404      1405      1403      1401      1404      1406
      1403      1401      1404      1407      1404      1407      1410      1411
      1404      1407      1410      1412      1404      1407      1410      1413
      1405      1404      1407      1408      1405      1404      1407      1409
      1405      1404      1407      1410      1406      1404      1407      1408
      1406      1404      1407      1409      1406      1404      1407      1410
      1407      1410      1413      1414      1407      1410      1413      1415
      1407      1410      1413      1416      1408      1407      1410      1411
      1408      1407      1410      1412      1408      1407      1410      1413
      1409      1407      1410      1411      1409      1407      1410      1412
      1409      1407      1410      1413      1410      1413      1416      1417
      1410      1413      1416      1418      1410      1413      1416      1419
      1411      1410      1413      1414      1411      1410      1413      1415
      1411      1410      1413      1416      1412      1410      1413      1414
      1412      1410      1413      1415      1412      1410      1413      1416
      1414      1413      1416      1417      1414      1413      1416      1418
      1414      1413      1416      1419      1415      1413      1416      1417
      1415      1413      1416      1418      1415      1413      1416      1419
      1420      1423      1426      1427      1420      1423      1426      1428
      1420      1423      1426      1429      1421      1420      1423      1424
      1421      1420      1423      1425      1421      1420      1423      1426
      1422      1420      1423      1424      1422      1420      1423      1425
      1422      1420      1423      1426      1423      1426      1429      1430
      1423      1426      1429      1431      1423      1426      1429      1432
      1424      1423      1426      1427      1424      1423      1426      1428
      1424      1423      1426      1429      1425      1423      1426      1427
      1425      1423      1426      1428      1425      1423      1426      1429
      1426      1429      1432      1433      1426      1429      1432      1434
      1426      1429      1432      1435      1427      1426      1429      1430
      1427      1426      1429      1431      1427      1426      1429      1432
      1428      1426      1429      1430      1428      1426      1429      1431
      1428      1426      1429      1432      1429      1432      1435      1436
      1429      1432      1435      1437      1429      1432      1435      1438
      1430      1429      1432      1433      1430      1429      1432      1434
      1430      1429      1432      1435      1431      1429      1432      1433
      1431      1429      1432      1434      1431      1429      1432      1435
      1432      1435      1438      1439      1432      1435      1438      1440
      1433      1432      1435      1436      1433      1432      1435      1437
      1433      1432      1435      1438      1434      1432      1435      1436
      1434      1432      1435      1437      1434      1432      1435      1438
      1435      1438      1440      1441      1435      1438      1440      1442
      1436      1435      1438      1439      1436      1435      1438      1440
      1437      1435      1438      1439      1437      1435      1438      1440
      1438      1440      1442      1443      1438      1440      1442      1444
      1438      1440      1442      1445      1439      1438      1440      1441
      1439      1438      1440      1442      1440      1442      1445      1446
      1440      1442      1445      1447      1440      1442      1445      1448
      1441      1440      1442      1443      1441      1440      1442      1444
      1441      1440      1442      1445      1442      1445      1448      1449
      1442      1445      1448      1450      1442      1445      1448      1451
      1443      1442      1445      1446      1443      1442      1445      1447
      1443      1442      1445      1448      1444      1442      1445      1446
      1444      1442      1445      1447      1444      1442      1445      1448
      1445      1448      1451      1452      1445      1448      1451      1453
      1445      1448      1451      1454      1446      1445      1448      1449
      1446      1445      1448      1450      1446      1445      1448      1451
      1447      1445      1448      1449      1447      1445      1448      1450
      1447      1445      1448      1451      1448      1451      1454      1455
      1448      1451      1454      1456      1448      1451      1454      1457
      1449      1448      1451      1452      1449      1448      1451      1453
      1449      1448      1451      1454      1450      1448      1451      1452
      1450      1448      1451      1453      1450      1448      1451      1454
      1451      1454      1457      1458      1451      1454      1457      1459
      1451      1454      1457      1460      1452      1451      1454      1455
      1452      1451      1454      1456      1452      1451      1454      1457
      1453      1451      1454      1455      1453      1451      1454      1456
      1453      1451      1454      1457      1454      1457      1460      1461
      1454      1457      1460      1462      1454      1457      1460      1463
      1455      1454      1457      1458      1455      1454      1457      1459
      1455      1454      1457      1460      1456      1454      1457      1458
      1456      1454      1457      1459      1456      1454      1457      1460
      1457      1460      1463      1464      1457      1460      1463      1465
      1457      1460      1463      1466      1458      1457      1460      1461
      1458      1457      1460      1462      1458      1457      1460      1463
      1459      1457      1460      1461      1459      1457      1460      1462
      1459      1457      1460      1463      1461      1460      1463      1464
      1461      1460      1463      1465      1461      1460      1463      1466
      1462      1460      1463      1464      1462      1460      1463      1465
      1462      1460      1463      1466      1467      1468      1483      1484
      1467      1468      1483      1485      1467      1468      1483      1489
      1468      1467      1471      1472      1468      1467      1471      1473
      1468      1467      1471      1474      1468      1467      1475      1476
      1468      1467      1475      1477      1468      1467      1475      1478
      1468      1467      1479      1480      1468      1467      1479      1481
      1468      1467      1479      1482      1468      1483      1489      1486
      1469      1468      1467      1471      1469      1468      1467      1475
      1469      1468      1467      1479      1469      1468      1483      1484
      1469      1468      1483      1485      1469      1468      1483      1489
      1470      1468      1467      1471      1470      1468      1467      1475
      1470      1468      1467      1479      1470      1468      1483      1484
      1470      1468      1483      1485      1470      1468      1483      1489
      1471      1467      1468      1483      1471      1467      1475      1476
      1471      1467      1475      1477      1471      1467      1475      1478
      1471      1467      1479      1480      1471      1467      1479      1481
      1471      1467      1479      1482      1472      1471      1467      1475
      1472      1471      1467      1479      1473      1471      1467      1475
      1473      1471      1467      1479      1474      1471      1467      1475
      1474      1471      1467      1479      1475      1467      1468      1483
      1475      1467      1479      1480      1475      1467      1479      1481
      1475      1467      1479      1482      1476      1475      1467      1479
      1477      1475      1467      1479      1478      1475      1467      1479
      1479      1467      1468      1483      1483      1489      1486      1487
      1483      1489      1486      1488      1483      1489      1486      1490
      1484      1483      1489      1486      1485      1483      1489      1486
      1486      1490      1491      1492      1486      1490      1491      1493
      1486      1490      1491      1494      1487      1486      1490      1491
      1488      1486      1490      1491      1489      1486      1490      1491
      1490      1491      1494      1495      1490      1491      1494      1496
      1490      1491      1494      1502      1491      1494      1496      1497
      1491      1494      1502      1503      1491      1494      1502      1504
      1491      1494      1502      1505      1492      1491      1494      1495
      1492      1491      1494      1496      1492      1491      1494      1502
      1493      1491      1494      1495      1493      1491      1494      1496
      1493      1491      1494      1502      1494      1496      1497      1498
      1494      1496      1497      1499      1494      1502      1505      1506
      1495      1494      1496      1497      1495      1494      1502      1503
      1495      1494      1502      1504      1495      1494      1502      1505
      1496      1494      1502      1503      1496      1494      1502      1504
      1496      1494      1502      1505      1496      1497      1499      1500
      1496      1497      1499      1501      1496      1497      1499      1511
      1497      1496      1494      1502      1497      1499      1511      1512
      1497      1499      1511      1513      1497      1499      1511      1514
      1498      1497      1499      1500      1498      1497      1499      1501
      1498      1497      1499      1511      1499      1511      1514      1515
      1499      1511      1514      1516      1499      1511      1514      1517
      1500      1499      1511      1512      1500      1499      1511      1513
      1500      1499      1511      1514      1501      1499      1511      1512
      1501      1499      1511      1513      1501      1499      1511      1514
      1502      1505      1506      1507      1502      1505      1506      1508
      1503      1502      1505      1506      1504      1502      1505      1506
      1505      1506      1508      1509      1505      1506      1508      1510
      1505      1506      1508      1558      1506      1508      1558      1559
      1506      1508      1558      1560      1506      1508      1558      1561
      1507      1506      1508      1509      1507      1506      1508      1510
      1507      1506      1508      1558      1508      1558      1561      1562
      1508      1558      1561      1563      1508      1558      1561      1564
      1509      1508      1558      1559      1509      1508      1558      1560
      1509      1508      1558      1561      1510      1508      1558      1559
      1510      1508      1558      1560      1510      1508      1558      1561
      1511      1514      1517      1518      1511      1514      1517      1519
      1511      1514      1517      1520      1512      1511      1514      1515
      1512      1511      1514      1516      1512      1511      1514      1517
      1513      1511      1514      1515      1513      1511      1514      1516
      1513      1511      1514      1517      1514      1517      1520      1521
      1514      1517      1520      1522      1514      1517      1520      1523
      1515      1514      1517      1518      1515      1514      1517      1519
      1515      1514      1517      1520      1516      1514      1517      1518
      1516      1514      1517      1519      1516      1514      1517      1520
      1517      1520      1523      1524      1517      1520      1523      1525
      1517      1520      1523      1526      1518      1517      1520      1521
      1518      1517      1520      1522      1518      1517      1520      1523
      1519      1517      1520      1521      1519      1517      1520      1522
      1519      1517      1520      1523      1520      1523      1526      1527
      1520      1523      1526      1528      1520      1523      1526      1529
      1521      1520      1523      1524      1521      1520      1523      1525
      1521      1520      1523      1526      1522      1520      1523      1524
      1522      1520      1523      1525      1522      1520      1523      1526
      1523      1526      1529      1530      1523      1526      1529      1531
      1524      1523      1526      1527      1524      1523      1526      1528
      1524      1523      1526      1529      1525      1523      1526      1527
      1525      1523      1526      1528      1525      1523      1526      1529
      1526      1529      1531      1532      1526      1529      1531      1533
      1527      1526      1529      1530      1527      1526      1529      1531
      1528      1526      1529      1530      1528      1526      1529      1531
      1529      1531      1533      1534      1529      1531      1533      1535
      1529      1531      1533      1536      1530      1529      1531      1532
      1530      1529      1531      1533      1531      1533      1536      1537
      1531      1533      1536      1538      1531      1533      1536      1539
      1532      1531      1533      1534      1532      1531      1533      1535
      1532      1531      1533      1536      1533      1536      1539      1540
      1533      1536      1539      1541      1533      1536      1539      1542
      1534      1533      1536      1537      1534      1533      1536      1538
      1534      1533      1536      1539      1535      1533      1536      1537
      1535      1533      1536      1538      1535      1533      1536      1539
      1536      1539      1542      1543      1536      1539      1542      1544
      1536      1539      1542      1545      1537      1536      1539      1540
      1537      1536      1539      1541      1537      1536      1539      1542
      1538      1536      1539      1540      1538      1536      1539      1541
      1538      1536      1539      1542      1539      1542      1545      1546
      1539      1542      1545      1547      1539      1542      1545      1548
      1540      1539      1542      1543      1540      1539      1542      1544
      1540      1539      1542      1545      1541      1539      1542      1543
      1541      1539      1542      1544      1541      1539      1542      1545
      1542      1545      1548      1549      1542      1545      1548      1550
      1542      1545      1548      1551      1543      1542      1545      1546
      1543      1542      1545      1547      1543      1542      1545      1548
      1544      1542      1545      1546      1544      1542      1545      1547
      1544      1542      1545      1548      1545      1548      1551      1552
      1545      1548      1551      1553      1545      1548      1551      1554
      1546      1545      1548      1549      1546      1545      1548      1550
      1546      1545      1548      1551      1547      1545      1548      1549
      1547      1545      1548      1550      1547      1545      1548      1551
      1548      1551      1554      1555      1548      1551      1554      1556
      1548      1551      1554      1557      1549      1548      1551      1552
      1549      1548      1551      1553      1549      1548      1551      1554
      1550      1548      1551      1552      1550      1548      1551      1553
      1550      1548      1551      1554      1552      1551      1554      1555
      1552      1551      1554      1556      1552      1551      1554      1557
      1553      1551      1554      1555      1553      1551      1554      1556
      1553      1551      1554      1557      1558      1561      1564      1565
      1558      1561      1564      1566      1558      1561      1564      1567
      1559      1558      1561      1562      1559      1558      1561      1563
      1559      1558      1561      1564      1560      1558      1561      1562
      1560      1558      1561      1563      1560      1558      1561      1564
      1561      1564      1567      1568      1561      1564      1567      1569
      1561      1564      1567      1570      1562      1561      1564      1565
      1562      1561      1564      1566      1562      1561      1564      1567
      1563      1561      1564      1565      1563      1561      1564      1566
      1563      1561      1564      1567      1564      1567      1570      1571
      1564      1567      1570      1572      1564      1567      1570      1573
      1565      1564      1567      1568      1565      1564      1567      1569
      1565      1564      1567      1570      1566      1564      1567      1568
      1566      1564      1567      1569      1566      1564      1567      1570
      1567      1570      1573      1574      1567      1570      1573      1575
      1567      1570      1573      1576      1568      1567      1570      1571
      1568      1567      1570      1572      1568      1567      1570      1573
      1569      1567      1570      1571      1569      1567      1570      1572
      1569      1567      1570      1573      1570      1573      1576      1577
      1570      1573      1576      1578      1571      1570      1573      1574
      1571      1570      1573      1575      1571      1570      1573      1576
      1572      1570      1573      1574      1572      1570      1573      1575
      1572      1570      1573      1576      1573      1576      1578      1579
      1573      1576      1578      1580      1574      1573      1576      1577
      1574      1573      1576      1578      1575      1573      1576      1577
      1575      1573      1576      1578      1576      1578      1580      1581
      1576      1578      1580      1582      1576      1578      1580      1583
      1577      1576      1578      1579      1577      1576      1578      1580
      1578      1580      1583      1584      1578      1580      1583      1585
      1578      1580      1583      1586      1579      1578      1580      1581
      1579      1578      1580      1582      1579      1578      1580      1583
      1580      1583      1586      1587      1580      1583      1586      1588
      1580      1583      1586      1589      1581      1580      1583      1584
      1581      1580      1583      1585      1581      1580      1583      1586
      1582      1580      1583      1584      1582      1580      1583      1585
      1582      1580      1583      1586      1583      1586      1589      1590
      1583      1586      1589      1591      1583      1586      1589      1592
      1584      1583      1586      1587      1584      1583      1586      1588
      1584      1583      1586      1589      1585      1583      1586      1587
      1585      1583      1586      1588      1585      1583      1586      1589
      1586      1589      1592      1593      1586      1589      1592      1594
      1586      1589      1592      1595      1587      1586      1589      1590
      1587      1586      1589      1591      1587      1586      1589      1592
      1588      1586      1589      1590      1588      1586      1589      1591
      1588      1586      1589      1592      1589      1592      1595      1596
      1589      1592      1595      1597      1589      1592      1595      1598
      1590      1589      1592      1593      1590      1589      1592      1594
      1590      1589      1592      1595      1591      1589      1592      1593
      1591      1589      1592      1594      1591      1589      1592      1595
      1592      1595      1598      1599      1592      1595      1598      1600
      1592      1595      1598      1601      1593      1592      1595      1596
      1593      1592      1595      1597      1593      1592      1595      1598
      1594      1592      1595      1596      1594      1592      1595      1597
      1594      1592      1595      1598      1595      1598      1601      1602
      1595      1598      1601      1603      1595      1598      1601      1604
      1596      1595      1598      1599      1596      1595      1598      1600
      1596      1595      1598      1601      1597      1595      1598      1599
      1597      1595      1598      1600      1597      1595      1598      1601
      1599      1598      1601      1602      1599      1598      1601      1603
      1599      1598      1601      1604      1600      1598      1601      1602
      1600      1598      1601      1603      1600      1598      1601      1604
      1605      1606      1621      1622      1605      1606      1621      1623
      1605      1606      1621      1627      1606      1605      1609      1610
      1606      1605      1609      1611      1606      1605      1609      1612
      1606      1605      1613      1614      1606      1605      1613      1615
      1606      1605      1613      1616      1606      1605      1617      1618
      1606      1605      1617      1619      1606      1605      1617      1620
      1606      1621      1627      1624      1607      1606      1605      1609
      1607      1606      1605      1613      1607      1606      1605      1617
      1607      1606      1621      1622      1607      1606      1621      1623
      1607      1606      1621      1627      1608      1606      1605      1609
      1608      1606      1605      1613      1608      1606      1605      1617
      1608      1606      1621      1622      1608      1606      1621      1623
      1608      1606      1621      1627      1609      1605      1606      1621
      1609      1605      1613      1614      1609      1605      1613      1615
      1609      1605      1613      1616      1609      1605      1617      1618
      1609      1605      1617      1619      1609      1605      1617      1620
      1610      1609      1605      1613      1610      1609      1605      1617
      1611      1609      1605      1613      1611      1609      1605      1617
      1612      1609      1605      1613      1612      1609      1605      1617
      1613      1605      1606      1621      1613      1605      1617      1618
      1613      1605      1617      1619      1613      1605      1617      1620
      1614      1613      1605      1617      1615      1613      1605      1617
      1616      1613      1605      1617      1617      1605      1606      1621
      1621      1627      1624      1625      1621      1627      1624      1626
      1621      1627      1624      1628      1622      1621      1627      1624
      1623      1621      1627      1624      1624      1628      1629      1630
      1624      1628      1629      1631      1624      1628      1629      1632
      1625      1624      1628      1629      1626      1624      1628      1629
      1627      1624      1628      1629      1628      1629      1632      1633
      1628      1629      1632      1634      1628      1629      1632      1640
      1629      1632      1634      1635      1629      1632      1640      1641
      1629      1632      1640      1642      1629      1632      1640      1643
      1630      1629      1632      1633      1630      1629      1632      1634
      1630      1629      1632      1640      1631      1629      1632      1633
      1631      1629      1632      1634      1631      1629      1632      1640
      1632      1634      1635      1636      1632      1634      1635      1637
      1632      1640      1643      1644      1633      1632      1634      1635
      1633      1632      1640      1641      1633      1632      1640      1642
      1633      1632      1640      1643      1634      1632      1640      1641
      1634      1632      1640      1642      1634      1632      1640      1643
      1634      1635      1637      1638      1634      1635      1637      1639
      1634      1635      1637      1649      1635      1634      1632      1640
      1635      1637      1649      1650      1635      1637      1649      1651
      1635      1637      1649      1652      1636      1635      1637      1638
      1636      1635      1637      1639      1636      1635      1637      1649
      1637      1649      1652      1653      1637      1649      1652      1654
      1637      1649      1652      1655      1638      1637      1649      1650
      1638      1637      1649      1651      1638      1637      1649      1652
      1639      1637      1649      1650      1639      1637      1649      1651
      1639      1637      1649      1652      1640      1643      1644      1645
      1640      1643      1644      1646      1641      1640      1643      1644
      1642      1640      1643      1644      1643      1644      1646      1647
      1643      1644      1646      1648      1643      1644      1646      1696
      1644      1646      1696      1697      1644      1646      1696      1698
      1644      1646      1696      1699      1645      1644      1646      1647
      1645      1644      1646      1648      1645      1644      1646      1696
      1646      1696      1699      1700      1646      1696      1699      1701
      1646      1696      1699      1702      1647      1646      1696      1697
      1647      1646      1696      1698      1647      1646      1696      1699
      1648      1646      1696      1697      1648      1646      1696      1698
      1648      1646      1696      1699      1649      1652      1655      1656
      1649      1652      1655      1657      1649      1652      1655      1658
      1650      1649      1652      1653      1650      1649      1652      1654
      1650      1649      1652      1655      1651      1649      1652      1653
      1651      1649      1652      1654      1651      1649      1652      1655
      1652      1655      1658      1659      1652      1655      1658      1660
      1652      1655      1658      1661      1653      1652      1655      1656
      1653      1652      1655      1657      1653      1652      1655      1658
      1654      1652      1655      1656      1654      1652      1655      1657
      1654      1652      1655      1658      1655      1658      1661      1662
      1655      1658      1661      1663      1655      1658      1661      1664
      1656      1655      1658      1659      1656      1655      1658      1660
      1656      1655      1658      1661      1657      1655      1658      1659
      1657      1655      1658      1660      1657      1655      1658      1661
      1658      1661      1664      1665      1658      1661      1664      1666
      1658      1661      1664      1667      1659      1658      1661      1662
      1659      1658      1661      1663      1659      1658      1661      1664
      1660      1658      1661      1662      1660      1658      1661      1663
      1660      1658      1661      1664      1661      1664      1667      1668
      1661      1664      1667      1669      1662      1661      1664      1665
      1662      1661      1664      1666      1662      1661      1664      1667
      1663      1661      1664      1665      1663      1661      1664      1666
      1663      1661      1664      1667      1664      1667      1669      1670
      1664      1667      1669      1671      1665      1664      1667      1668
      1665      1664      1667      1669      1666      1664      1667      1668
      1666      1664      1667      1669      1667      1669      1671      1672
      1667      1669      1671      1673      1667      1669      1671      1674
      1668      1667      1669      1670      1668      1667      1669      1671
      1669      1671      1674      1675      1669      1671      1674      1676
      1669      1671      1674      1677      1670      1669      1671      1672
      1670      1669      1671      1673      1670      1669      1671      1674
      1671      1674      1677      1678      1671      1674      1677      1679
      1671      1674      1677      1680      1672      1671      1674      1675
      1672      1671      1674      1676      1672      1671      1674      1677
      1673      1671      1674      1675      1673      1671      1674      1676
      1673      1671      1674      1677      1674      1677      1680      1681
      1674      1677      1680      1682      1674      1677      1680      1683
      1675      1674      1677      1678      1675      1674      1677      1679
      1675      1674      1677      1680      1676      1674      1677      1678
      1676      1674      1677      1679      1676      1674      1677      1680
      1677      1680      1683      1684      1677      1680      1683      1685
      1677      1680      1683      1686      1678      1677      1680      1681
      1678      1677      1680      1682      1678      1677      1680      1683
      1679      1677      1680      1681      1679      1677      1680      1682
      1679      1677      1680      1683      1680      1683      1686      1687
      1680      1683      1686      1688      1680      1683      1686      1689
      1681      1680      1683      1684      1681      1680      1683      1685
      1681      1680      1683      1686      1682      1680      1683      1684
      1682      1680      1683      1685      1682      1680      1683      1686
      1683      1686      1689      1690      1683      1686      1689      1691
      1683      1686      1689      1692      1684      1683      1686      1687
      1684      1683      1686      1688      1684      1683      1686      1689
      1685      1683      1686      1687      1685      1683      1686      1688
      1685      1683      1686      1689      1686      1689      1692      1693
      1686      1689      1692      1694      1686      1689      1692      1695
      1687      1686      1689      1690      1687      1686      1689      1691
      1687      1686      1689      1692      1688      1686      1689      1690
      1688      1686      1689      1691      1688      1686      1689      1692
      1690      1689      1692      1693      1690      1689      1692      1694
      1690      1689      1692      1695      1691      1689      1692      1693
      1691      1689      1692      1694      1691      1689      1692      1695
      1696      1699      1702      1703      1696      1699      1702      1704
      1696      1699      1702      1705      1697      1696      1699      1700
      1697      1696      1699      1701      1697      1696      1699      1702
      1698      1696      1699      1700      1698      1696      1699      1701
      1698      1696      1699      1702      1699      1702      1705      1706
      1699      1702      1705      1707      1699      1702      1705      1708
      1700      1699      1702      1703      1700      1699      1702      1704
      1700      1699      1702      1705      1701      1699      1702      1703
      1701      1699      1702      1704      1701      1699      1702      1705
      1702      1705      1708      1709      1702      1705      1708      1710
      1702      1705      1708      1711      1703      1702      1705      1706
      1703      1702      1705      1707      1703      1702      1705      1708
      1704      1702      1705      1706      1704      1702      1705      1707
      1704      1702      1705      1708      1705      1708      1711      1712
      1705      1708      1711      1713      1705      1708      1711      1714
      1706      1705      1708      1709      1706      1705      1708      1710
      1706      1705      1708      1711      1707      1705      1708      1709
      1707      1705      1708      1710      1707      1705      1708      1711
      1708      1711      1714      1715      1708      1711      1714      1716
      1709      1708      1711      1712      1709      1708      1711      1713
      1709      1708      1711      1714      1710      1708      1711      1712
      1710      1708      1711      1713      1710      1708      1711      1714
      1711      1714      1716      1717      1711      1714      1716      1718
      1712      1711      1714      1715      1712      1711      1714      1716
      1713      1711      1714      1715      1713      1711      1714      1716
      1714      1716      1718      1719      1714      1716      1718      1720
      1714      1716      1718      1721      1715      1714      1716      1717
      1715      1714      1716      1718      1716      1718      1721      1722
      1716      1718      1721      1723      1716      1718      1721      1724
      1717      1716      1718      1719      1717      1716      1718      1720
      1717      1716      1718      1721      1718      1721      1724      1725
      1718      1721      1724      1726      1718      1721      1724      1727
      1719      1718      1721      1722      1719      1718      1721      1723
      1719      1718      1721      1724      1720      1718      1721      1722
      1720      1718      1721      1723      1720      1718      1721      1724
      1721      1724      1727      1728      1721      1724      1727      1729
      1721      1724      1727      1730      1722      1721      1724      1725
      1722      1721      1724      1726      1722      1721      1724      1727
      1723      1721      1724      1725      1723      1721      1724      1726
      1723      1721      1724      1727      1724      1727      1730      1731
      1724      1727      1730      1732      1724      1727      1730      1733
      1725      1724      1727      1728      1725      1724      1727      1729
      1725      1724      1727      1730      1726      1724      1727      1728
      1726      1724      1727      1729      1726      1724      1727      1730
      1727      1730      1733      1734      1727      1730      1733      1735
      1727      1730      1733      1736      1728      1727      1730      1731
      1728      1727      1730      1732      1728      1727      1730      1733
      1729      1727      1730      1731      1729      1727      1730      1732
      1729      1727      1730      1733      1730      1733      1736      1737
      1730      1733      1736      1738      1730      1733      1736      1739
      1731      1730      1733      1734      1731      1730      1733      1735
      1731      1730      1733      1736      1732      1730      1733      1734
      1732      1730      1733      1735      1732      1730      1733      1736
      1733      1736      1739      1740      1733      1736      1739      1741
      1733      1736      1739      1742      1734      1733      1736      1737
      1734      1733      1736      1738      1734      1733      1736      1739
      1735      1733      1736      1737      1735      1733      1736      1738
      1735      1733      1736      1739      1737      1736      1739      1740
      1737      1736      1739      1741      1737      1736      1739      1742
      1738      1736      1739      1740      1738      1736      1739      1741
      1738      1736      1739      1742      1743      1744      1759      1760
      1743      1744      1759      1761      1743      1744      1759      1765
      1744      1743      1747      1748      1744      1743      1747      1749
      1744      1743      1747      1750      1744      1743      1751      1752
      1744      1743      1751      1753      1744      1743      1751      1754
      1744      1743      1755      1756      1744      1743      1755      1757
      1744      1743      1755      1758      1744      1759      1765      1762
      1745      1744      1743      1747      1745      1744      1743      1751
      1745      1744      1743      1755      1745      1744      1759      1760
      1745      1744      1759      1761      1745      1744      1759      1765
      1746      1744      1743      1747      1746      1744      1743      1751
      1746      1744      1743      1755      1746      1744      1759      1760
      1746      1744      1759      1761      1746      1744      1759      1765
      1747      1743      1744      1759      1747      1743      1751      1752
      1747      1743      1751      1753      1747      1743      1751      1754
      1747      1743      1755      1756      1747      1743      1755      1757
      1747      1743      1755      1758      1748      1747      1743      1751
      1748      1747      1743      1755      1749      1747      1743      1751
      1749      1747      1743      1755      1750      1747      1743      1751
      1750      1747      1743      1755      1751      1743      1744      1759
      1751      1743      1755      1756      1751      1743      1755      1757
      1751      1743      1755      1758      1752      1751      1743      1755
      1753      1751      1743      1755      1754      1751      1743      1755
      1755      1743      1744      1759      1759      1765      1762      1763
      1759      1765      1762      1764      1759      1765      1762      1766
      1760      1759      1765      1762      1761      1759      1765      1762
      1762      1766      1767      1768      1762      1766      1767      1769
      1762      1766      1767      1770      1763      1762      1766      1767
      1764      1762      1766      1767      1765      1762      1766      1767
      1766      1767      1770      1771      1766      1767      1770      1772
      1766      1767      1770      1778      1767      1770      1772      1773
      1767      1770      1778      1779      1767      1770      1778      1780
      1767      1770      1778      1781      1768      1767      1770      1771
      1768      1767      1770      1772      1768      1767      1770      1778
      1769      1767      1770      1771      1769      1767      1770      1772
      1769      1767      1770      1778      1770      1772      1773      1774
      1770      1772      1773      1775      1770      1778      1781      1782
      1771      1770      1772      1773      1771      1770      1778      1779
      1771      1770      1778      1780      1771      1770      1778      1781
      1772      1770      1778      1779      1772      1770      1778      1780
      1772      1770      1778      1781      1772      1773      1775      1776
      1772      1773      1775      1777      1772      1773      1775      1787
      1773      1772      1770      1778      1773      1775      1787      1788
      1773      1775      1787      1789      1773      1775      1787      1790
      1774      1773      1775      1776      1774      1773      1775      1777
      1774      1773      1775      1787      1775      1787      1790      1791
      1775      1787      1790      1792      1775      1787      1790      1793
      1776      1775      1787      1788      1776      1775      1787      1789
      1776      1775      1787      1790      1777      1775      1787      1788
      1777      1775      1787      1789      1777      1775      1787      1790
      1778      1781      1782      1783      1778      1781      1782      1784
      1779      1778      1781      1782      1780      1778      1781      1782
      1781      1782      1784      1785      1781      1782      1784      1786
      1781      1782      1784      1834      1782      1784      1834      1835
      1782      1784      1834      1836      1782      1784      1834      1837
      1783      1782      1784      1785      1783      1782      1784      1786
      1783      1782      1784      1834      1784      1834      1837      1838
      1784      1834      1837      1839      1784      1834      1837      1840
      1785      1784      1834      1835      1785      1784      1834      1836
      1785      1784      1834      1837      1786      1784      1834      1835
      1786      1784      1834      1836      1786      1784      1834      1837
      1787      1790      1793      1794      1787      1790      1793      1795
      1787      1790      1793      1796      1788      1787      1790      1791
      1788      1787      1790      1792      1788      1787      1790      1793
      1789      1787      1790      1791      1789      1787      1790      1792
      1789      1787      1790      1793      1790      1793      1796      1797
      1790      1793      1796      1798      1790      1793      1796      1799
      1791      1790      1793      1794      1791      1790      1793      1795
      1791      1790      1793      1796      1792      1790      1793      1794
      1792      1790      1793      1795      1792      1790      1793      1796
      1793      1796      1799      1800      1793      1796      1799      1801
      1793      1796      1799      1802      1794      1793      1796      1797
      1794      1793      1796      1798      1794      1793      1796      1799
      1795      1793      1796      1797      1795      1793      1796      1798
      1795      1793      1796      1799      1796      1799      1802      1803
      1796      1799      1802      1804      1796      1799      1802      1805
      1797      1796      1799      1800      1797      1796      1799      1801
      1797      1796      1799      1802      1798      1796      1799      1800
      1798      1796      1799      1801      1798      1796      1799      1802
      1799      1802      1805      1806      1799      1802      1805      1807
      1800      1799      1802      1803      1800      1799      1802      1804
      1800      1799      1802      1805      1801      1799      1802      1803
      1801      1799      1802      1804      1801      1799      1802      1805
      1802      1805      1807      1808      1802      1805      1807      1809
      1803      1802      1805      1806      1803      1802      1805      1807
      1804      1802      1805      1806      1804      1802      1805      1807
      1805      1807      1809      1810      1805      1807      1809      1811
      1805      1807      1809      1812      1806      1805      1807      1808
      1806      1805      1807      1809      1807      1809      1812      1813
      1807      1809      1812      1814      1807      1809      1812      1815
      1808      1807      1809      1810      1808      1807      1809      1811
      1808      1807      1809      1812      1809      1812      1815      1816
      1809      1812      1815      1817      1809      1812      1815      1818
      1810      1809      1812      1813      1810      1809      1812      1814
      1810      1809      1812      1815      1811      1809      1812      1813
      1811      1809      1812      1814      1811      1809      1812      1815
      1812      1815      1818      1819      1812      1815      1818      1820
      1812      1815      1818      1821      1813      1812      1815      1816
      1813      1812      1815      1817      1813      1812      1815      1818
      1814      1812      1815      1816      1814      1812      1815      1817
      1814      1812      1815      1818      1815      1818      1821      1822
      1815      1818      1821      1823      1815      1818      1821      1824
      1816      1815      1818      1819      1816      1815      1818      1820
      1816      1815      1818      1821      1817      1815      1818      1819
      1817      1815      1818      1820      1817      1815      1818      1821
      1818      1821      1824      1825      1818      1821      1824      1826
      1818      1821      1824      1827      1819      1818      1821      1822
      1819      1818      1821      1823      1819      1818      1821      1824
      1820      1818      1821      1822      1820      1818      1821      1823
      1820      1818      1821      1824      1821      1824      1827      1828
      1821      1824      1827      1829      1821      1824      1827      1830
      1822      1821      1824      1825      1822      1821      1824      1826
      1822      1821      1824      1827      1823      1821      1824      1825
      1823      1821      1824      1826      1823      1821      1824      1827
      1824      1827      1830      1831      1824      1827      1830      1832
      1824      1827      1830      1833      1825      1824      1827      1828
      1825      1824      1827      1829      1825      1824      1827      1830
      1826      1824      1827      1828      1826      1824      1827      1829
      1826      1824      1827      1830      1828      1827      1830      1831
      1828      1827      1830      1832      1828      1827      1830      1833
      1829      1827      1830      1831      1829      1827      1830      1832
      1829      1827      1830      1833      1834      1837      1840      1841
      1834      1837      1840      1842      1834      1837      1840      1843
      1835      1834      1837      1838      1835      1834      1837      1839
      1835      1834      1837      1840      1836      1834      1837      1838
      1836      1834      1837      1839      1836      1834      1837      1840
      1837      1840      1843      1844      1837      1840      1843      1845
      1837      1840      1843      1846      1838      1837      1840      1841
      1838      1837      1840      1842      1838      1837      1840      1843
      1839      1837      1840      1841      1839      1837      1840      1842
      1839      1837      1840      1843      1840      1843      1846      1847
      1840      1843      1846      1848      1840      1843      1846      1849
      1841      1840      1843      1844      1841      1840      1843      1845
      1841      1840      1843      1846      1842      1840      1843      1844
      1842      1840      1843      1845      1842      1840      1843      1846
      1843      1846      1849      1850      1843      1846      1849      1851
      1843      1846      1849      1852      1844      1843      1846      1847
      1844      1843      1846      1848      1844      1843      1846      1849
      1845      1843      1846      1847      1845      1843      1846      1848
      1845      1843      1846      1849      1846      1849      1852      1853
      1846      1849      1852      1854      1847      1846      1849      1850
      1847      1846      1849      1851      1847      1846      1849      1852
      1848      1846      1849      1850      1848      1846      1849      1851
      1848      1846      1849      1852      1849      1852      1854      1855
      1849      1852      1854      1856      1850      1849      1852      1853
      1850      1849      1852      1854      1851      1849      1852      1853
      1851      1849      1852      1854      1852      1854      1856      1857
      1852      1854      1856      1858      1852      1854      1856      1859
      1853      1852      1854      1855      1853      1852      1854      1856
      1854      1856      1859      1860      1854      1856      1859      1861
      1854      1856      1859      1862      1855      1854      1856      1857
      1855      1854      1856      1858      1855      1854      1856      1859
      1856      1859      1862      1863      1856      1859      1862      1864
      1856      1859      1862      1865      1857      1856      1859      1860
      1857      1856      1859      1861      1857      1856      1859      1862
      1858      1856      1859      1860      1858      1856      1859      1861
      1858      1856      1859      1862      1859      1862      1865      1866
      1859      1862      1865      1867      1859      1862      1865      1868
      1860      1859      1862      1863      1860      1859      1862      1864
      1860      1859      1862      1865      1861      1859      1862      1863
      1861      1859      1862      1864      1861      1859      1862      1865
      1862      1865      1868      1869      1862      1865      1868      1870
      1862      1865      1868      1871      1863      1862      1865      1866
      1863      1862      1865      1867      1863      1862      1865      1868
      1864      1862      1865      1866      1864      1862      1865      1867
      1864      1862      1865      1868      1865      1868      1871      1872
      1865      1868      1871      1873      1865      1868      1871      1874
      1866      1865      1868      1869      1866      1865      1868      1870
      1866      1865      1868      1871      1867      1865      1868      1869
      1867      1865      1868      1870      1867      1865      1868      1871
      1868      1871      1874      1875      1868      1871      1874      1876
      1868      1871      1874      1877      1869      1868      1871      1872
      1869      1868      1871      1873      1869      1868      1871      1874
      1870      1868      1871      1872      1870      1868      1871      1873
      1870      1868      1871      1874      1871      1874      1877      1878
      1871      1874      1877      1879      1871      1874      1877      1880
      1872      1871      1874      1875      1872      1871      1874      1876
      1872      1871      1874      1877      1873      1871      1874      1875
      1873      1871      1874      1876      1873      1871      1874      1877
      1875      1874      1877      1878      1875      1874      1877      1879
      1875      1874      1877      1880      1876      1874      1877      1878
      1876      1874      1877      1879      1876      1874      1877      1880
      1881      1882      1897      1898      1881      1882      1897      1899
      1881      1882      1897      1903      1882      1881      1885      1886
      1882      1881      1885      1887      1882      1881      1885      1888
      1882      1881      1889      1890      1882      1881      1889      1891
      1882      1881      1889      1892      1882      1881      1893      1894
      1882      1881      1893      1895      1882      1881      1893      1896
      1882      1897      1903      1900      1883      1882      1881      1885
      1883      1882      1881      1889      1883      1882      1881      1893
      1883      1882      1897      1898      1883      1882      1897      1899
      1883      1882      1897      1903      1884      1882      1881      1885
      1884      1882      1881      1889      1884      1882      1881      1893
      1884      1882      1897      1898      1884      1882      1897      1899
      1884      1882      1897      1903      1885      1881      1882      1897
      1885      1881      1889      1890      1885      1881      1889      1891
      1885      1881      1889      1892      1885      1881      1893      1894
      1885      1881      1893      1895      1885      1881      1893      1896
      1886      1885      1881      1889      1886      1885      1881      1893
      1887      1885      1881      1889      1887      1885      1881      1893
      1888      1885      1881      1889      1888      1885      1881      1893
      1889      1881      1882      1897      1889      1881      1893      1894
      1889      1881      1893      1895      1889      1881      1893      1896
      1890      1889      1881      1893      1891      1889      1881      1893
      1892      1889      1881      1893      1893      1881      1882      1897
      1897      1903      1900      1901      1897      1903      1900      1902
      1897      1903      1900      1904      1898      1897      1903      1900
      1899      1897      1903      1900      1900      1904      1905      1906
      1900      1904      1905      1907      1900      1904      1905      1908
      1901      1900      1904      1905      1902      1900      1904      1905
      1903      1900      1904      1905      1904      1905      1908      1909
      1904      1905      1908      1910      1904      1905      1908      1916
      1905      1908      1910      1911      1905      1908      1916      1917
      1905      1908      1916      1918      1905      1908      1916      1919
      1906      1905      1908      1909      1906      1905      1908      1910
      1906      1905      1908      1916      1907      1905      1908      1909
      1907      1905      1908      1910      1907      1905      1908      1916
      1908      1910      1911      1912      1908      1910      1911      1913
      1908      1916      1919      1920      1909      1908      1910      1911
      1909      1908      1916      1917      1909      1908      1916      1918
      1909      1908      1916      1919      1910      1908      1916      1917
      1910      1908      1916      1918      1910      1908      1916      1919
      1910      1911      1913      1914      1910      1911      1913      1915
      1910      1911      1913      1925      1911      1910      1908      1916
      1911      1913      1925      1926      1911      1913      1925      1927
      1911      1913      1925      1928      1912      1911      1913      1914
      1912      1911      1913      1915      1912      1911      1913      1925
      1913      1925      1928      1929      1913      1925      1928      1930
      1913      1925      1928      1931      1914      1913      1925      1926
      1914      1913      1925      1927      1914      1913      1925      1928
      1915      1913      1925      1926      1915      1913      1925      1927
      1915      1913      1925      1928      1916      1919      1920      1921
      1916      1919      1920      1922      1917      1916      1919      1920
      1918      1916      1919      1920      1919      1920      1922      1923
      1919      1920      1922      1924      1919      1920      1922      1972
      1920      1922      1972      1973      1920      1922      1972      1974
      1920      1922      1972      1975      1921      1920      1922      1923
      1921      1920      1922      1924      1921      1920      1922      1972
      1922      1972      1975      1976      1922      1972      1975      1977
      1922      1972      1975      1978      1923      1922      1972      1973
      1923      1922      1972      1974      1923      1922      1972      1975
      1924      1922      1972      1973      1924      1922      1972      1974
      1924      1922      1972      1975      1925      1928      1931      1932
      1925      1928      1931      1933      1925      1928      1931      1934
      1926      1925      1928      1929      1926      1925      1928      1930
      1926      1925      1928      1931      1927      1925      1928      1929
      1927      1925      1928      1930      1927      1925      1928      1931
      1928      1931      1934      1935      1928      1931      1934      1936
      1928      1931      1934      1937      1929      1928      1931      1932
      1929      1928      1931      1933      1929      1928      1931      1934
      1930      1928      1931      1932      1930      1928      1931      1933
      1930      1928      1931      1934      1931      1934      1937      1938
      1931      1934      1937      1939      1931      1934      1937      1940
      1932      1931      1934      1935      1932      1931      1934      1936
      1932      1931      1934      1937      1933      1931      1934      1935
      1933      1931      1934      1936      1933      1931      1934      1937
      1934      1937      1940      1941      1934      1937      1940      1942
      1934      1937      1940      1943      1935      1934      1937      1938
      1935      1934      1937      1939      1935      1934      1937      1940
      1936      1934      1937      1938      1936      1934      1937      1939
      1936      1934      1937      1940      1937      1940      1943      1944
      1937      1940      1943      1945      1938      1937      1940      1941
      1938      1937      1940      1942      1938      1937      1940      1943
      1939      1937      1940      1941      1939      1937      1940      1942
      1939      1937      1940      1943      1940      1943      1945      1946
      1940      1943      1945      1947      1941      1940      1943      1944
      1941      1940      1943      1945      1942      1940      1943      1944
      1942      1940      1943      1945      1943      1945      1947      1948
      1943      1945      1947      1949      1943      1945      1947      1950
      1944      1943      1945      1946      1944      1943      1945      1947
      1945      1947      1950      1951      1945      1947      1950      1952
      1945      1947      1950      1953      1946      1945      1947      1948
      1946      1945      1947      1949      1946      1945      1947      1950
      1947      1950      1953      1954      1947      1950      1953      1955
      1947      1950      1953      1956      1948      1947      1950      1951
      1948      1947      1950      1952      1948      1947      1950      1953
      1949      1947      1950      1951      1949      1947      1950      1952
      1949      1947      1950      1953      1950      1953      1956      1957
      1950      1953      1956      1958      1950      1953      1956      1959
      1951      1950      1953      1954      1951      1950      1953      1955
      1951      1950      1953      1956      1952      1950      1953      1954
      1952      1950      1953      1955      1952      1950      1953      1956
      1953      1956      1959      1960      1953      1956      1959      1961
      1953      1956      1959      1962      1954      1953      1956      1957
      1954      1953      1956      1958      1954      1953      1956      1959
      1955      1953      1956      1957      1955      1953      1956      1958
      1955      1953      1956      1959      1956      1959      1962      1963
      1956      1959      1962      1964      1956      1959      1962      1965
      1957      1956      1959      1960      1957      1956      1959      1961
      1957      1956      1959      1962      1958      1956      1959      1960
      1958      1956      1959      1961      1958      1956      1959      1962
      1959      1962      1965      1966      1959      1962      1965      1967
      1959      1962      1965      1968      1960      1959      1962      1963
      1960      1959      1962      1964      1960      1959      1962      1965
      1961      1959      1962      1963      1961      1959      1962      1964
      1961      1959      1962      1965      1962      1965      1968      1969
      1962      1965      1968      1970      1962      1965      1968      1971
      1963      1962      1965      1966      1963      1962      1965      1967
      1963      1962      1965      1968      1964      1962      1965      1966
      1964      1962      1965      1967      1964      1962      1965      1968
      1966      1965      1968      1969      1966      1965      1968      1970
      1966      1965      1968      1971      1967      1965      1968      1969
      1967      1965      1968      1970      1967      1965      1968      1971
      1972      1975      1978      1979      1972      1975      1978      1980
      1972      1975      1978      1981      1973      1972      1975      1976
      1973      1972      1975      1977      1973      1972      1975      1978
      1974      1972      1975      1976      1974      1972      1975      1977
      1974      1972      1975      1978      1975      1978      1981      1982
      1975      1978      1981      1983      1975      1978      1981      1984
      1976      1975      1978      1979      1976      1975      1978      1980
      1976      1975      1978      1981      1977      1975      1978      1979
      1977      1975      1978      1980      1977      1975      1978      1981
      1978      1981      1984      1985      1978      1981      1984      1986
      1978      1981      1984      1987      1979      1978      1981      1982
      1979      1978      1981      1983      1979      1978      1981      1984
      1980      1978      1981      1982      1980      1978      1981      1983
      1980      1978      1981      1984      1981      1984      1987      1988
      1981      1984      1987      1989      1981      1984      1987      1990
      1982      1981      1984      1985      1982      1981      1984      1986
      1982      1981      1984      1987      1983      1981      1984      1985
      1983      1981      1984      1986      1983      1981      1984      1987
      1984      1987      1990      1991      1984      1987      1990      1992
      1985      1984      1987      1988      1985      1984      1987      1989
      1985      1984      1987      1990      1986      1984      1987      1988
      1986      1984      1987      1989      1986      1984      1987      1990
      1987      1990      1992      1993      1987      1990      1992      1994
      1988      1987      1990      1991      1988      1987      1990      1992
      1989      1987      1990      1991      1989      1987      1990      1992
      1990      1992      1994      1995      1990      1992      1994      1996
      1990      1992      1994      1997      1991      1990      1992      1993
      1991      1990      1992      1994      1992      1994      1997      1998
      1992      1994      1997      1999      1992      1994      1997      2000
      1993      1992      1994      1995      1993      1992      1994      1996
      1993      1992      1994      1997      1994      1997      2000      2001
      1994      1997      2000      2002      1994      1997      2000      2003
      1995      1994      1997      1998      1995      1994      1997      1999
      1995      1994      1997      2000      1996      1994      1997      1998
      1996      1994      1997      1999      1996      1994      1997      2000
      1997      2000      2003      2004      1997      2000      2003      2005
      1997      2000      2003      2006      1998      1997      2000      2001
      1998      1997      2000      2002      1998      1997      2000      2003
      1999      1997      2000      2001      1999      1997      2000      2002
      1999      1997      2000      2003      2000      2003      2006      2007
      2000      2003      2006      2008      2000      2003      2006      2009
      2001      2000      2003      2004      2001      2000      2003      2005
      2001      2000      2003      2006      2002      2000      2003      2004
      2002      2000      2003      2005      2002      2000      2003      2006
      2003      2006      2009      2010      2003      2006      2009      2011
      2003      2006      2009      2012      2004      2003      2006      2007
      2004      2003      2006      2008      2004      2003      2006      2009
      2005      2003      2006      2007      2005      2003      2006      2008
      2005      2003      2006      2009      2006      2009      2012      2013
      2006      2009      2012      2014      2006      2009      2012      2015
      2007      2006      2009      2010      2007      2006      2009      2011
      2007      2006      2009      2012      2008      2006      2009      2010
      2008      2006      2009      2011      2008      2006      2009      2012
      2009      2012      2015      2016      2009      2012      2015      2017
      2009      2012      2015      2018      2010      2009      2012      2013
      2010      2009      2012      2014      2010      2009      2012      2015
      2011      2009      2012      2013      2011      2009      2012      2014
      2011      2009      2012      2015      2013      2012      2015      2016
      2013      2012      2015      2017      2013      2012      2015      2018
      2014      2012      2015      2016      2014      2012      2015      2017
      2014      2012      2015      2018      2019      2020      2035      2036
      2019      2020      2035      2037      2019      2020      2035      2041
      2020      2019      2023      2024      2020      2019      2023      2025
      2020      2019      2023      2026      2020      2019      2027      2028
      2020      2019      2027      2029      2020      2019      2027      2030
      2020      2019      2031      2032      2020      2019      2031      2033
      2020      2019      2031      2034      2020      2035      2041      2038
      2021      2020      2019      2023      2021      2020      2019      2027
      2021      2020      2019      2031      2021      2020      2035      2036
      2021      2020      2035      2037      2021      2020      2035      2041
      2022      2020      2019      2023      2022      2020      2019      2027
      2022      2020      2019      2031      2022      2020      2035      2036
      2022      2020      2035      2037      2022      2020      2035      2041
      2023      2019      2020      2035      2023      2019      2027      2028
      2023      2019      2027      2029      2023      2019      2027      2030
      2023      2019      2031      2032      2023      2019      2031      2033
      2023      2019      2031      2034      2024      2023      2019      2027
      2024      2023      2019      2031      2025      2023      2019      2027
      2025      2023      2019      2031      2026      2023      2019      2027
      2026      2023      2019      2031      2027      2019      2020      2035
      2027      2019      2031      2032      2027      2019      2031      2033
      2027      2019      2031      2034      2028      2027      2019      2031
      2029      2027      2019      2031      2030      2027      2019      2031
      2031      2019      2020      2035      2035      2041      2038      2039
      2035      2041      2038      2040      2035      2041      2038      2042
      2036      2035      2041      2038      2037      2035      2041      2038
      2038      2042      2043      2044      2038      2042      2043      2045
      2038      2042      2043      2046      2039      2038      2042      2043
      2040      2038      2042      2043      2041      2038      2042      2043
      2042      2043      2046      2047      2042      2043      2046      2048
      2042      2043      2046      2054      2043      2046      2048      2049
      2043      2046      2054      2055      2043      2046      2054      2056
      2043      2046      2054      2057      2044      2043      2046      2047
      2044      2043      2046      2048      2044      2043      2046      2054
      2045      2043      2046      2047      2045      2043      2046      2048
      2045      2043      2046      2054      2046      2048      2049      2050
      2046      2048      2049      2051      2046      2054      2057      2058
      2047      2046      2048      2049      2047      2046      2054      2055
      2047      2046      2054      2056      2047      2046      2054      2057
      2048      2046      2054      2055      2048      2046      2054      2056
      2048      2046      2054      2057      2048      2049      2051      2052
      2048      2049      2051      2053      2048      2049      2051      2063
      2049      2048      2046      2054      2049      2051      2063      2064
      2049      2051      2063      2065      2049      2051      2063      2066
      2050      2049      2051      2052      2050      2049      2051      2053
      2050      2049      2051      2063      2051      2063      2066      2067
      2051      2063      2066      2068      2051      2063      2066      2069
      2052      2051      2063      2064      2052      2051      2063      2065
      2052      2051      2063      2066      2053      2051      2063      2064
      2053      2051      2063      2065      2053      2051      2063      2066
      2054      2057      2058      2059      2054      2057      2058      2060
      2055      2054      2057      2058      2056      2054      2057      2058
      2057      2058      2060      2061      2057      2058      2060      2062
      2057      2058      2060      2110      2058      2060      2110      2111
      2058      2060      2110      2112      2058      2060      2110      2113
      2059      2058      2060      2061      2059      2058      2060      2062
      2059      2058      2060      2110      2060      2110      2113      2114
      2060      2110      2113      2115      2060      2110      2113      2116
      2061      2060      2110      2111      2061      2060      2110      2112
      2061      2060      2110      2113      2062      2060      2110      2111
      2062      2060      2110      2112      2062      2060      2110      2113
      2063      2066      2069      2070      2063      2066      2069      2071
      2063      2066      2069      2072      2064      2063      2066      2067
      2064      2063      2066      2068      2064      2063      2066      2069
      2065      2063      2066      2067      2065      2063      2066      2068
      2065      2063      2066      2069      2066      2069      2072      2073
      2066      2069      2072      2074      2066      2069      2072      2075
      2067      2066      2069      2070      2067      2066      2069      2071
      2067      2066      2069      2072      2068      2066      2069      2070
      2068      2066      2069      2071      2068      2066      2069      2072
      2069      2072      2075      2076      2069      2072      2075      2077
      2069      2072      2075      2078      2070      2069      2072      2073
      2070      2069      2072      2074      2070      2069      2072      2075
      2071      2069      2072      2073      2071      2069      2072      2074
      2071      2069      2072      2075      2072      2075      2078      2079
      2072      2075      2078      2080      2072      2075      2078      2081
      2073      2072      2075      2076      2073      2072      2075      2077
      2073      2072      2075      2078      2074      2072      2075      2076
      2074      2072      2075      2077      2074      2072      2075      2078
      2075      2078      2081      2082      2075      2078      2081      2083
      2076      2075      2078      2079      2076      2075      2078      2080
      2076      2075      2078      2081      2077      2075      2078      2079
      2077      2075      2078      2080      2077      2075      2078      2081
      2078      2081      2083      2084      2078      2081      2083      2085
      2079      2078      2081      2082      2079      2078      2081      2083
      2080      2078      2081      2082      2080      2078      2081      2083
      2081      2083      2085      2086      2081      2083      2085      2087
      2081      2083      2085      2088      2082      2081      2083      2084
      2082      2081      2083      2085      2083      2085      2088      2089
      2083      2085      2088      2090      2083      2085      2088      2091
      2084      2083      2085      2086      2084      2083      2085      2087
      2084      2083      2085      2088      2085      2088      2091      2092
      2085      2088      2091      2093      2085      2088      2091      2094
      2086      2085      2088      2089      2086      2085      2088      2090
      2086      2085      2088      2091      2087      2085      2088      2089
      2087      2085      2088      2090      2087      2085      2088      2091
      2088      2091      2094      2095      2088      2091      2094      2096
      2088      2091      2094      2097      2089      2088      2091      2092
      2089      2088      2091      2093      2089      2088      2091      2094
      2090      2088      2091      2092      2090      2088      2091      2093
      2090      2088      2091      2094      2091      2094      2097      2098
      2091      2094      2097      2099      2091      2094      2097      2100
      2092      2091      2094      2095      2092      2091      2094      2096
      2092      2091      2094      2097      2093      2091      2094      2095
      2093      2091      2094      2096      2093      2091      2094      2097
      2094      2097      2100      2101      2094      2097      2100      2102
      2094      2097      2100      2103      2095      2094      2097      2098
      2095      2094      2097      2099      2095      2094      2097      2100
      2096      2094      2097      2098      2096      2094      2097      2099
      2096      2094      2097      2100      2097      2100      2103      2104
      2097      2100      2103      2105      2097      2100      2103      2106
      2098      2097      2100      2101      2098      2097      2100      2102
      2098      2097      2100      2103      2099      2097      2100      2101
      2099      2097      2100      2102      2099      2097      2100      2103
      2100      2103      2106      2107      2100      2103      2106      2108
      2100      2103      2106      2109      2101      2100      2103      2104
      2101      2100      2103      2105      2101      2100      2103      2106
      2102      2100      2103      2104      2102      2100      2103      2105
      2102      2100      2103      2106      2104      2103      2106      2107
      2104      2103      2106      2108      2104      2103      2106      2109
      2105      2103      2106      2107      2105      2103      2106      2108
      2105      2103      2106      2109      2110      2113      2116      2117
      2110      2113      2116      2118      2110      2113      2116      2119
      2111      2110      2113      2114      2111      2110      2113      2115
      2111      2110      2113      2116      2112      2110      2113      2114
      2112      2110      2113      2115      2112      2110      2113      2116
      2113      2116      2119      2120      2113      2116      2119      2121
      2113      2116      2119      2122      2114      2113      2116      2117
      2114      2113      2116      2118      2114      2113      2116      2119
      2115      2113      2116      2117      2115      2113      2116      2118
      2115      2113      2116      2119      2116      2119      2122      2123
      2116      2119      2122      2124      2116      2119      2122      2125
      2117      2116      2119      2120      2117      2116      2119      2121
      2117      2116      2119      2122      2118      2116      2119      2120
      2118      2116      2119      2121      2118      2116      2119      2122
      2119      2122      2125      2126      2119      2122      2125      2127
      2119      2122      2125      2128      2120      2119      2122      2123
      2120      2119      2122      2124      2120      2119      2122      2125
      2121      2119      2122      2123      2121      2119      2122      2124
      2121      2119      2122      2125      2122      2125      2128      2129
      2122      2125      2128      2130      2123      2122      2125      2126
      2123      2122      2125      2127      2123      2122      2125      2128
      2124      2122      2125      2126      2124      2122      2125      2127
      2124      2122      2125      2128      2125      2128      2130      2131
      2125      2128      2130      2132      2126      2125      2128      2129
      2126      2125      2128      2130      2127      2125      2128      2129
      2127      2125      2128      2130      2128      2130      2132      2133
      2128      2130      2132      2134      2128      2130      2132      2135
      2129      2128      2130      2131      2129      2128      2130      2132
      2130      2132      2135      2136      2130      2132      2135      2137
      2130      2132      2135      2138      2131      2130      2132      2133
      2131      2130      2132      2134      2131      2130      2132      2135
      2132      2135      2138      2139      2132      2135      2138      2140
      2132      2135      2138      2141      2133      2132      2135      2136
      2133      2132      2135      2137      2133      2132      2135      2138
      2134      2132      2135      2136      2134      2132      2135      2137
      2134      2132      2135      2138      2135      2138      2141      2142
      2135      2138      2141      2143      2135      2138      2141      2144
      2136      2135      2138      2139      2136      2135      2138      2140
      2136      2135      2138      2141      2137      2135      2138      2139
      2137      2135      2138      2140      2137      2135      2138      2141
      2138      2141      2144      2145      2138      2141      2144      2146
      2138      2141      2144      2147      2139      2138      2141      2142
      2139      2138      2141      2143      2139      2138      2141      2144
      2140      2138      2141      2142      2140      2138      2141      2143
      2140      2138      2141      2144      2141      2144      2147      2148
      2141      2144      2147      2149      2141      2144      2147      2150
      2142      2141      2144      2145      2142      2141      2144      2146
      2142      2141      2144      2147      2143      2141      2144      2145
      2143      2141      2144      2146      2143      2141      2144      2147
      2144      2147      2150      2151      2144      2147      2150      2152
      2144      2147      2150      2153      2145      2144      2147      2148
      2145      2144      2147      2149      2145      2144      2147      2150
      2146      2144      2147      2148      2146      2144      2147      2149
      2146      2144      2147      2150      2147      2150      2153      2154
      2147      2150      2153      2155      2147      2150      2153      2156
      2148      2147      2150      2151      2148      2147      2150      2152
      2148      2147      2150      2153      2149      2147      2150      2151
      2149      2147      2150      2152      2149      2147      2150      2153
      2151      2150      2153      2154      2151      2150      2153      2155
      2151      2150      2153      2156      2152      2150      2153      2154
      2152      2150      2153      2155      2152      2150      2153      2156
      2157      2158      2173      2174      2157      2158      2173      2175
      2157      2158      2173      2179      2158      2157      2161      2162
      2158      2157      2161      2163      2158      2157      2161      2164
      2158      2157      2165      2166      2158      2157      2165      2167
      2158      2157      2165      2168      2158      2157      2169      2170
      2158      2157      2169      2171      2158      2157      2169      2172
      2158      2173      2179      2176      2159      2158      2157      2161
      2159      2158      2157      2165      2159      2158      2157      2169
      2159      2158      2173      2174      2159      2158      2173      2175
      2159      2158      2173      2179      2160      2158      2157      2161
      2160      2158      2157      2165      2160      2158      2157      2169
      2160      2158      2173      2174      2160      2158      2173      2175
      2160      2158      2173      2179      2161      2157      2158      2173
      2161      2157      2165      2166      2161      2157      2165      2167
      2161      2157      2165      2168      2161      2157      2169      2170
      2161      2157      2169      2171      2161      2157      2169      2172
      2162      2161      2157      2165      2162      2161      2157      2169
      2163      2161      2157      2165      2163      2161      2157      2169
      2164      2161      2157      2165      2164      2161      2157      2169
      2165      2157      2158      2173      2165      2157      2169      2170
      2165      2157      2169      2171      2165      2157      2169      2172
      2166      2165      2157      2169      2167      2165      2157      2169
      2168      2165      2157      2169      2169      2157      2158      2173
      2173      2179      2176      2177      2173      2179      2176      2178
      2173      2179      2176      2180      2174      2173      2179      2176
      2175      2173      2179      2176      2176      2180      2181      2182
      2176      2180      2181      2183      2176      2180      2181      2184
      2177      2176      2180      2181      2178      2176      2180      2181
      2179      2176      2180      2181      2180      2181      2184      2185
      2180      2181      2184      2186      2180      2181      2184      2192
      2181      2184      2186      2187      2181      2184      2192      2193
      2181      2184      2192      2194      2181      2184      2192      2195
      2182      2181      2184      2185      2182      2181      2184      2186
      2182      2181      2184      2192      2183      2181      2184      2185
      2183      2181      2184      2186      2183      2181      2184      2192
      2184      2186      2187      2188      2184      2186      2187      2189
      2184      2192      2195      2196      2185      2184      2186      2187
      2185      2184      2192      2193      2185      2184      2192      2194
      2185      2184      2192      2195      2186      2184      2192      2193
      2186      2184      2192      2194      2186      2184      2192      2195
      2186      2187      2189      2190      2186      2187      2189      2191
      2186      2187      2189      2201      2187      2186      2184      2192
      2187      2189      2201      2202      2187      2189      2201      2203
      2187      2189      2201      2204      2188      2187      2189      2190
      2188      2187      2189      2191      2188      2187      2189      2201
      2189      2201      2204      2205      2189      2201      2204      2206
      2189      2201      2204      2207      2190      2189      2201      2202
      2190      2189      2201      2203      2190      2189      2201      2204
      2191      2189      2201      2202      2191      2189      2201      2203
      2191      2189      2201      2204      2192      2195      2196      2197
      2192      2195      2196      2198      2193      2192      2195      2196
      2194      2192      2195      2196      2195      2196      2198      2199
      2195      2196      2198      2200      2195      2196      2198      2248
      2196      2198      2248      2249      2196      2198      2248      2250
      2196      2198      2248      2251      2197      2196      2198      2199
      2197      2196      2198      2200      2197      2196      2198      2248
      2198      2248      2251      2252      2198      2248      2251      2253
      2198      2248      2251      2254      2199      2198      2248      2249
      2199      2198      2248      2250      2199      2198      2248      2251
      2200      2198      2248      2249      2200      2198      2248      2250
      2200      2198      2248      2251      2201      2204      2207      2208
      2201      2204      2207      2209      2201      2204      2207      2210
      2202      2201      2204      2205      2202      2201      2204      2206
      2202      2201      2204      2207      2203      2201      2204      2205
      2203      2201      2204      2206      2203      2201      2204      2207
      2204      2207      2210      2211      2204      2207      2210      2212
      2204      2207      2210      2213      2205      2204      2207      2208
      2205      2204      2207      2209      2205      2204      2207      2210
      2206      2204      2207      2208      2206      2204      2207      2209
      2206      2204      2207      2210      2207      2210      2213      2214
      2207      2210      2213      2215      2207      2210      2213      2216
      2208      2207      2210      2211      2208      2207      2210      2212
      2208      2207      2210      2213      2209      2207      2210      2211
      2209      2207      2210      2212      2209      2207      2210      2213
      2210      2213      2216      2217      2210      2213      2216      2218
      2210      2213      2216      2219      2211      2210      2213      2214
      2211      2210      2213      2215      2211      2210      2213      2216
      2212      2210      2213      2214      2212      2210      2213      2215
      2212      2210      2213      2216      2213      2216      2219      2220
      2213      2216      2219      2221      2214      2213      2216      2217
      2214      2213      2216      2218      2214      2213      2216      2219
      2215      2213      2216      2217      2215      2213      2216      2218
      2215      2213      2216      2219      2216      2219      2221      2222
      2216      2219      2221      2223      2217      2216      2219      2220
      2217      2216      2219      2221      2218      2216      2219      2220
      2218      2216      2219      2221      2219      2221      2223      2224
      2219      2221      2223      2225      2219      2221      2223      2226
      2220      2219      2221      2222      2220      2219      2221      2223
      2221      2223      2226      2227      2221      2223      2226      2228
      2221      2223      2226      2229      2222      2221      2223      2224
      2222      2221      2223      2225      2222      2221      2223      2226
      2223      2226      2229      2230      2223      2226      2229      2231
      2223      2226      2229      2232      2224      2223      2226      2227
      2224      2223      2226      2228      2224      2223      2226      2229
      2225      2223      2226      2227      2225      2223      2226      2228
      2225      2223      2226      2229      2226      2229      2232      2233
      2226      2229      2232      2234      2226      2229      2232      2235
      2227      2226      2229      2230      2227      2226      2229      2231
      2227      2226      2229      2232      2228      2226      2229      2230
      2228      2226      2229      2231      2228      2226      2229      2232
      2229      2232      2235      2236      2229      2232      2235      2237
      2229      2232      2235      2238      2230      2229      2232      2233
      2230      2229      2232      2234      2230      2229      2232      2235
      2231      2229      2232      2233      2231      2229      2232      2234
      2231      2229      2232      2235      2232      2235      2238      2239
      2232      2235      2238      2240      2232      2235      2238      2241
      2233      2232      2235      2236      2233      2232      2235      2237
      2233      2232      2235      2238      2234      2232      2235      2236
      2234      2232      2235      2237      2234      2232      2235      2238
      2235      2238      2241      2242      2235      2238      2241      2243
      2235      2238      2241      2244      2236      2235      2238      2239
      2236      2235      2238      2240      2236      2235      2238      2241
      2237      2235      2238      2239      2237      2235      2238      2240
      2237      2235      2238      2241      2238      2241      2244      2245
      2238      2241      2244      2246      2238      2241      2244      2247
      2239      2238      2241      2242      2239      2238      2241      2243
      2239      2238      2241      2244      2240      2238      2241      2242
      2240      2238      2241      2243      2240      2238      2241      2244
      2242      2241      2244      2245      2242      2241      2244      2246
      2242      2241      2244      2247      2243      2241      2244      2245
      2243      2241      2244      2246      2243      2241      2244      2247
      2248      2251      2254      2255      2248      2251      2254      2256
      2248      2251      2254      2257      2249      2248      2251      2252
      2249      2248      2251      2253      2249      2248      2251      2254
      2250      2248      2251      2252      2250      2248      2251      2253
      2250      2248      2251      2254      2251      2254      2257      2258
      2251      2254      2257      2259      2251      2254      2257      2260
      2252      2251      2254      2255      2252      2251      2254      2256
      2252      2251      2254      2257      2253      2251      2254      2255
      2253      2251      2254      2256      2253      2251      2254      2257
      2254      2257      2260      2261      2254      2257      2260      2262
      2254      2257      2260      2263      2255      2254      2257      2258
      2255      2254      2257      2259      2255      2254      2257      2260
      2256      2254      2257      2258      2256      2254      2257      2259
      2256      2254      2257      2260      2257      2260      2263      2264
      2257      2260      2263      2265      2257      2260      2263      2266
      2258      2257      2260      2261      2258      2257      2260      2262
      2258      2257      2260      2263      2259      2257      2260      2261
      2259      2257      2260      2262      2259      2257      2260      2263
      2260      2263      2266      2267      2260      2263      2266      2268
      2261      2260      2263      2264      2261      2260      2263      2265
      2261      2260      2263      2266      2262      2260      2263      2264
      2262      2260      2263      2265      2262      2260      2263      2266
      2263      2266      2268      2269      2263      2266      2268      2270
      2264      2263      2266      2267      2264      2263      2266      2268
      2265      2263      2266      2267      2265      2263      2266      2268
      2266      2268      2270      2271      2266      2268      2270      2272
      2266      2268      2270      2273      2267      2266      2268      2269
      2267      2266      2268      2270      2268      2270      2273      2274
      2268      2270      2273      2275      2268      2270      2273      2276
      2269      2268      2270      2271      2269      2268      2270      2272
      2269      2268      2270      2273      2270      2273      2276      2277
      2270      2273      2276      2278      2270      2273      2276      2279
      2271      2270      2273      2274      2271      2270      2273      2275
      2271      2270      2273      2276      2272      2270      2273      2274
      2272      2270      2273      2275      2272      2270      2273      2276
      2273      2276      2279      2280      2273      2276      2279      2281
      2273      2276      2279      2282      2274      2273      2276      2277
      2274      2273      2276      2278      2274      2273      2276      2279
      2275      2273      2276      2277      2275      2273      2276      2278
      2275      2273      2276      2279      2276      2279      2282      2283
      2276      2279      2282      2284      2276      2279      2282      2285
      2277      2276      2279      2280      2277      2276      2279      2281
      2277      2276      2279      2282      2278      2276      2279      2280
      2278      2276      2279      2281      2278      2276      2279      2282
      2279      2282      2285      2286      2279      2282      2285      2287
      2279      2282      2285      2288      2280      2279      2282      2283
      2280      2279      2282      2284      2280      2279      2282      2285
      2281      2279      2282      2283      2281      2279      2282      2284
      2281      2279      2282      2285      2282      2285      2288      2289
      2282      2285      2288      2290      2282      2285      2288      2291
      2283      2282      2285      2286      2283      2282      2285      2287
      2283      2282      2285      2288      2284      2282      2285      2286
      2284      2282      2285      2287      2284      2282      2285      2288
      2285      2288      2291      2292      2285      2288      2291      2293
      2285      2288      2291      2294      2286      2285      2288      2289
      2286      2285      2288      2290      2286      2285      2288      2291
      2287      2285      2288      2289      2287      2285      2288      2290
      2287      2285      2288      2291      2289      2288      2291      2292
      2289      2288      2291      2293      2289      2288      2291      2294
      2290      2288      2291      2292      2290      2288      2291      2293
      2290      2288      2291      2294      2295      2296      2311      2312
      2295      2296      2311      2313      2295      2296      2311      2317
      2296      2295      2299      2300      2296      2295      2299      2301
      2296      2295      2299      2302      2296      2295      2303      2304
      2296      2295      2303      2305      2296      2295      2303      2306
      2296      2295      2307      2308      2296      2295      2307      2309
      2296      2295      2307      2310      2296      2311      2317      2314
      2297      2296      2295      2299      2297      2296      2295      2303
      2297      2296      2295      2307      2297      2296      2311      2312
      2297      2296      2311      2313      2297      2296      2311      2317
      2298      2296      2295      2299      2298      2296      2295      2303
      2298      2296      2295      2307      2298      2296      2311      2312
      2298      2296      2311      2313      2298      2296      2311      2317
      2299      2295      2296      2311      2299      2295      2303      2304
      2299      2295      2303      2305      2299      2295      2303      2306
      2299      2295      2307      2308      2299      2295      2307      2309
      2299      2295      2307      2310      2300      2299      2295      2303
      2300      2299      2295      2307      2301      2299      2295      2303
      2301      2299      2295      2307      2302      2299      2295      2303
      2302      2299      2295      2307      2303      2295      2296      2311
      2303      2295      2307      2308      2303      2295      2307      2309
      2303      2295      2307      2310      2304      2303      2295      2307
      2305      2303      2295      2307      2306      2303      2295      2307
      2307      2295      2296      2311      2311      2317      2314      2315
      2311      2317      2314      2316      2311      2317      2314      2318
      2312      2311      2317      2314      2313      2311      2317      2314
      2314      2318      2319      2320      2314      2318      2319      2321
      2314      2318      2319      2322      2315      2314      2318      2319
      2316      2314      2318      2319      2317      2314      2318      2319
      2318      2319      2322      2323      2318      2319      2322      2324
      2318      2319      2322      2330      2319      2322      2324      2325
      2319      2322      2330      2331      2319      2322      2330      2332
      2319      2322      2330      2333      2320      2319      2322      2323
      2320      2319      2322      2324      2320      2319      2322      2330
      2321      2319      2322      2323      2321      2319      2322      2324
      2321      2319      2322      2330      2322      2324      2325      2326
      2322      2324      2325      2327      2322      2330      2333      2334
      2323      2322      2324      2325      2323      2322      2330      2331
      2323      2322      2330      2332      2323      2322      2330      2333
      2324      2322      2330      2331      2324      2322      2330      2332
      2324      2322      2330      2333      2324      2325      2327      2328
      2324      2325      2327      2329      2324      2325      2327      2339
      2325      2324      2322      2330      2325      2327      2339      2340
      2325      2327      2339      2341      2325      2327      2339      2342
      2326      2325      2327      2328      2326      2325      2327      2329
      2326      2325      2327      2339      2327      2339      2342      2343
      2327      2339      2342      2344      2327      2339      2342      2345
      2328      2327      2339      2340      2328      2327      2339      2341
      2328      2327      2339      2342      2329      2327      2339      2340
      2329      2327      2339      2341      2329      2327      2339      2342
      2330      2333      2334      2335      2330      2333      2334      2336
      2331      2330      2333      2334      2332      2330      2333      2334
      2333      2334      2336      2337      2333      2334      2336      2338
      2333      2334      2336      2386      2334      2336      2386      2387
      2334      2336      2386      2388      2334      2336      2386      2389
      2335      2334      2336      2337      2335      2334      2336      2338
      2335      2334      2336      2386      2336      2386      2389      2390
      2336      2386      2389      2391      2336      2386      2389      2392
      2337      2336      2386      2387      2337      2336      2386      2388
      2337      2336      2386      2389      2338      2336      2386      2387
      2338      2336      2386      2388      2338      2336      2386      2389
      2339      2342      2345      2346      2339      2342      2345      2347
      2339      2342      2345      2348      2340      2339      2342      2343
      2340      2339      2342      2344      2340      2339      2342      2345
      2341      2339      2342      2343      2341      2339      2342      2344
      2341      2339      2342      2345      2342      2345      2348      2349
      2342      2345      2348      2350      2342      2345      2348      2351
      2343      2342      2345      2346      2343      2342      2345      2347
      2343      2342      2345      2348      2344      2342      2345      2346
      2344      2342      2345      2347      2344      2342      2345      2348
      2345      2348      2351      2352      2345      2348      2351      2353
      2345      2348      2351      2354      2346      2345      2348      2349
      2346      2345      2348      2350      2346      2345      2348      2351
      2347      2345      2348      2349      2347      2345      2348      2350
      2347      2345      2348      2351      2348      2351      2354      2355
      2348      2351      2354      2356      2348      2351      2354      2357
      2349      2348      2351      2352      2349      2348      2351      2353
      2349      2348      2351      2354      2350      2348      2351      2352
      2350      2348      2351      2353      2350      2348      2351      2354
      2351      2354      2357      2358      2351      2354      2357      2359
      2352      2351      2354      2355      2352      2351      2354      2356
      2352      2351      2354      2357      2353      2351      2354      2355
      2353      2351      2354      2356      2353      2351      2354      2357
      2354      2357      2359      2360      2354      2357      2359      2361
      2355      2354      2357      2358      2355      2354      2357      2359
      2356      2354      2357      2358      2356      2354      2357      2359
      2357      2359      2361      2362      2357      2359      2361      2363
      2357      2359      2361      2364      2358      2357      2359      2360
      2358      2357      2359      2361      2359      2361      2364      2365
      2359      2361      2364      2366      2359      2361      2364      2367
      2360      2359      2361      2362      2360      2359      2361      2363
      2360      2359      2361      2364      2361      2364      2367      2368
      2361      2364      2367      2369      2361      2364      2367      2370
      2362      2361      2364      2365      2362      2361      2364      2366
      2362      2361      2364      2367      2363      2361      2364      2365
      2363      2361      2364      2366      2363      2361      2364      2367
      2364      2367      2370      2371      2364      2367      2370      2372
      2364      2367      2370      2373      2365      2364      2367      2368
      2365      2364      2367      2369      2365      2364      2367      2370
      2366      2364      2367      2368      2366      2364      2367      2369
      2366      2364      2367      2370      2367      2370      2373      2374
      2367      2370      2373      2375      2367      2370      2373      2376
      2368      2367      2370      2371      2368      2367      2370      2372
      2368      2367      2370      2373      2369      2367      2370      2371
      2369      2367      2370      2372      2369      2367      2370      2373
      2370      2373      2376      2377      2370      2373      2376      2378
      2370      2373      2376      2379      2371      2370      2373      2374
      2371      2370      2373      2375      2371      2370      2373      2376
      2372      2370      2373      2374      2372      2370      2373      2375
      2372      2370      2373      2376      2373      2376      2379      2380
      2373      2376      2379      2381      2373      2376      2379      2382
      2374      2373      2376      2377      2374      2373      2376      2378
      2374      2373      2376      2379      2375      2373      2376      2377
      2375      2373      2376      2378      2375      2373      2376      2379
      2376      2379      2382      2383      2376      2379      2382      2384
      2376      2379      2382      2385      2377      2376      2379      2380
      2377      2376      2379      2381      2377      2376      2379      2382
      2378      2376      2379      2380      2378      2376      2379      2381
      2378      2376      2379      2382      2380      2379      2382      2383
      2380      2379      2382      2384      2380      2379      2382      2385
      2381      2379      2382      2383      2381      2379      2382      2384
      2381      2379      2382      2385      2386      2389      2392      2393
      2386      2389      2392      2394      2386      2389      2392      2395
      2387      2386      2389      2390      2387      2386      2389      2391
      2387      2386      2389      2392      2388      2386      2389      2390
      2388      2386      2389      2391      2388      2386      2389      2392
      2389      2392      2395      2396      2389      2392      2395      2397
      2389      2392      2395      2398      2390      2389      2392      2393
      2390      2389      2392      2394      2390      2389      2392      2395
      2391      2389      2392      2393      2391      2389      2392      2394
      2391      2389      2392      2395      2392      2395      2398      2399
      2392      2395      2398      2400      2392      2395      2398      2401
      2393      2392      2395      2396      2393      2392      2395      2397
      2393      2392      2395      2398      2394      2392      2395      2396
      2394      2392      2395      2397      2394      2392      2395      2398
      2395      2398      2401      2402      2395      2398      2401      2403
      2395      2398      2401      2404      2396      2395      2398      2399
      2396      2395      2398      2400      2396      2395      2398      2401
      2397      2395      2398      2399      2397      2395      2398      2400
      2397      2395      2398      2401      2398      2401      2404      2405
      2398      2401      2404      2406      2399      2398      2401      2402
      2399      2398      2401      2403      2399      2398      2401      2404
      2400      2398      2401      2402      2400      2398      2401      2403
      2400      2398      2401      2404      2401      2404      2406      2407
      2401      2404      2406      2408      2402      2401      2404      2405
      2402      2401      2404      2406      2403      2401      2404      2405
      2403      2401      2404      2406      2404      2406      2408      2409
      2404      2406      2408      2410      2404      2406      2408      2411
      2405      2404      2406      2407      2405      2404      2406      2408
      2406      2408      2411      2412      2406      2408      2411      2413
      2406      2408      2411      2414      2407      2406      2408      2409
      2407      2406      2408      2410      2407      2406      2408      2411
      2408      2411      2414      2415      2408      2411      2414      2416
      2408      2411      2414      2417      2409      2408      2411      2412
      2409      2408      2411      2413      2409      2408      2411      2414
      2410      2408      2411      2412      2410      2408      2411      2413
      2410      2408      2411      2414      2411      2414      2417      2418
      2411      2414      2417      2419      2411      2414      2417      2420
      2412      2411      2414      2415      2412      2411      2414      2416
      2412      2411      2414      2417      2413      2411      2414      2415
      2413      2411      2414      2416      2413      2411      2414      2417
      2414      2417      2420      2421      2414      2417      2420      2422
      2414      2417      2420      2423      2415      2414      2417      2418
      2415      2414      2417      2419      2415      2414      2417      2420
      2416      2414      2417      2418      2416      2414      2417      2419
      2416      2414      2417      2420      2417      2420      2423      2424
      2417      2420      2423      2425      2417      2420      2423      2426
      2418      2417      2420      2421      2418      2417      2420      2422
      2418      2417      2420      2423      2419      2417      2420      2421
      2419      2417      2420      2422      2419      2417      2420      2423
      2420      2423      2426      2427      2420      2423      2426      2428
      2420      2423      2426      2429      2421      2420      2423      2424
      2421      2420      2423      2425      2421      2420      2423      2426
      2422      2420      2423      2424      2422      2420      2423      2425
      2422      2420      2423      2426      2423      2426      2429      2430
      2423      2426      2429      2431      2423      2426      2429      2432
      2424      2423      2426      2427      2424      2423      2426      2428
      2424      2423      2426      2429      2425      2423      2426      2427
      2425      2423      2426      2428      2425      2423      2426      2429
      2427      2426      2429      2430      2427      2426      2429      2431
      2427      2426      2429      2432      2428      2426      2429      2430
      2428      2426      2429      2431      2428      2426      2429      2432
      2433      2434      2449      2450      2433      2434      2449      2451
      2433      2434      2449      2455      2434      2433      2437      2438
      2434      2433      2437      2439      2434      2433      2437      2440
      2434      2433      2441      2442      2434      2433      2441      2443
      2434      2433      2441      2444      2434      2433      2445      2446
      2434      2433      2445      2447      2434      2433      2445      2448
      2434      2449      2455      2452      2435      2434      2433      2437
      2435      2434      2433      2441      2435      2434      2433      2445
      2435      2434      2449      2450      2435      2434      2449      2451
      2435      2434      2449      2455      2436      2434      2433      2437
      2436      2434      2433      2441      2436      2434      2433      2445
      2436      2434      2449      2450      2436      2434      2449      2451
      2436      2434      2449      2455      2437      2433      2434      2449
      2437      2433      2441      2442      2437      2433      2441      2443
      2437      2433      2441      2444      2437      2433      2445      2446
      2437      2433      2445      2447      2437      2433      2445      2448
      2438      2437      2433      2441      2438      2437      2433      2445
      2439      2437      2433      2441      2439      2437      2433      2445
      2440      2437      2433      2441      2440      2437      2433      2445
      2441      2433      2434      2449      2441      2433      2445      2446
      2441      2433      2445      2447      2441      2433      2445      2448
      2442      2441      2433      2445      2443      2441      2433      2445
      2444      2441      2433      2445      2445      2433      2434      2449
      2449      2455      2452      2453      2449      2455      2452      2454
      2449      2455      2452      2456      2450      2449      2455      2452
      2451      2449      2455      2452      2452      2456      2457      2458
      2452      2456      2457      2459      2452      2456      2457      2460
      2453      2452      2456      2457      2454      2452      2456      2457
      2455      2452      2456      2457      2456      2457      2460      2461
      2456      2457      2460      2462      2456      2457      2460      2468
      2457      2460      2462      2463      2457      2460      2468      2469
      2457      2460      2468      2470      2457      2460      2468      2471
      2458      2457      2460      2461      2458      2457      2460      2462
      2458      2457      2460      2468      2459      2457      2460      2461
      2459      2457      2460      2462      2459      2457      2460      2468
      2460      2462      2463      2464      2460      2462      2463      2465
      2460      2468      2471      2472      2461      2460      2462      2463
      2461      2460      2468      2469      2461      2460      2468      2470
      2461      2460      2468      2471      2462      2460      2468      2469
      2462      2460      2468      2470      2462      2460      2468      2471
      2462      2463      2465      2466      2462      2463      2465      2467
      2462      2463      2465      2477      2463      2462      2460      2468
      2463      2465      2477      2478      2463      2465      2477      2479
      2463      2465      2477      2480      2464      2463      2465      2466
      2464      2463      2465      2467      2464      2463      2465      2477
      2465      2477      2480      2481      2465      2477      2480      2482
      2465      2477      2480      2483      2466      2465      2477      2478
      2466      2465      2477      2479      2466      2465      2477      2480
      2467      2465      2477      2478      2467      2465      2477      2479
      2467      2465      2477      2480      2468      2471      2472      2473
      2468      2471      2472      2474      2469      2468      2471      2472
      2470      2468      2471      2472      2471      2472      2474      2475
      2471      2472      2474      2476      2471      2472      2474      2524
      2472      2474      2524      2525      2472      2474      2524      2526
      2472      2474      2524      2527      2473      2472      2474      2475
      2473      2472      2474      2476      2473      2472      2474      2524
      2474      2524      2527      2528      2474      2524      2527      2529
      2474      2524      2527      2530      2475      2474      2524      2525
      2475      2474      2524      2526      2475      2474      2524      2527
      2476      2474      2524      2525      2476      2474      2524      2526
      2476      2474      2524      2527      2477      2480      2483      2484
      2477      2480      2483      2485      2477      2480      2483      2486
      2478      2477      2480      2481      2478      2477      2480      2482
      2478      2477      2480      2483      2479      2477      2480      2481
      2479      2477      2480      2482      2479      2477      2480      2483
      2480      2483      2486      2487      2480      2483      2486      2488
      2480      2483      2486      2489      2481      2480      2483      2484
      2481      2480      2483      2485      2481      2480      2483      2486
      2482      2480      2483      2484      2482      2480      2483      2485
      2482      2480      2483      2486      2483      2486      2489      2490
      2483      2486      2489      2491      2483      2486      2489      2492
      2484      2483      2486      2487      2484      2483      2486      2488
      2484      2483      2486      2489      2485      2483      2486      2487
      2485      2483      2486      2488      2485      2483      2486      2489
      2486      2489      2492      2493      2486      2489      2492      2494
      2486      2489      2492      2495      2487      2486      2489      2490
      2487      2486      2489      2491      2487      2486      2489      2492
      2488      2486      2489      2490      2488      2486      2489      2491
      2488      2486      2489      2492      2489      2492      2495      2496
      2489      2492      2495      2497      2490      2489      2492      2493
      2490      2489      2492      2494      2490      2489      2492      2495
      2491      2489      2492      2493      2491      2489      2492      2494
      2491      2489      2492      2495      2492      2495      2497      2498
      2492      2495      2497      2499      2493      2492      2495      2496
      2493      2492      2495      2497      2494      2492      2495      2496
      2494      2492      2495      2497      2495      2497      2499      2500
      2495      2497      2499      2501      2495      2497      2499      2502
      2496      2495      2497      2498      2496      2495      2497      2499
      2497      2499      2502      2503      2497      2499      2502      2504
      2497      2499      2502      2505      2498      2497      2499      2500
      2498      2497      2499      2501      2498      2497      2499      2502
      2499      2502      2505      2506      2499      2502      2505      2507
      2499      2502      2505      2508      2500      2499      2502      2503
      2500      2499      2502      2504      2500      2499      2502      2505
      2501      2499      2502      2503      2501      2499      2502      2504
      2501      2499      2502      2505      2502      2505      2508      2509
      2502      2505      2508      2510      2502      2505      2508      2511
      2503      2502      2505      2506      2503      2502      2505      2507
      2503      2502      2505      2508      2504      2502      2505      2506
      2504      2502      2505      2507      2504      2502      2505      2508
      2505      2508      2511      2512      2505      2508      2511      2513
      2505      2508      2511      2514      2506      2505      2508      2509
      2506      2505      2508      2510      2506      2505      2508      2511
      2507      2505      2508      2509      2507      2505      2508      2510
      2507      2505      2508      2511      2508      2511      2514      2515
      2508      2511      2514      2516      2508      2511      2514      2517
      2509      2508      2511      2512      2509      2508      2511      2513
      2509      2508      2511      2514      2510      2508      2511      2512
      2510      2508      2511      2513      2510      2508      2511      2514
      2511      2514      2517      2518      2511      2514      2517      2519
      2511      2514      2517      2520      2512      2511      2514      2515
      2512      2511      2514      2516      2512      2511      2514      2517
      2513      2511      2514      2515      2513      2511      2514      2516
      2513      2511      2514      2517      2514      2517      2520      2521
      2514      2517      2520      2522      2514      2517      2520      2523
      2515      2514      2517      2518      2515      2514      2517      2519
      2515      2514      2517      2520      2516      2514      2517      2518
      2516      2514      2517      2519      2516      2514      2517      2520
      2518      2517      2520      2521      2518      2517      2520      2522
      2518      2517      2520      2523      2519      2517      2520      2521
      2519      2517      2520      2522      2519      2517      2520      2523
      2524      2527      2530      2531      2524      2527      2530      2532
      2524      2527      2530      2533      2525      2524      2527      2528
      2525      2524      2527      2529      2525      2524      2527      2530
      2526      2524      2527      2528      2526      2524      2527      2529
      2526      2524      2527      2530      2527      2530      2533      2534
      2527      2530      2533      2535      2527      2530      2533      2536
      2528      2527      2530      2531      2528      2527      2530      2532
      2528      2527      2530      2533      2529      2527      2530      2531
      2529      2527      2530      2532      2529      2527      2530      2533
      2530      2533      2536      2537      2530      2533      2536      2538
      2530      2533      2536      2539      2531      2530      2533      2534
      2531      2530      2533      2535      2531      2530      2533      2536
      2532      2530      2533      2534      2532      2530      2533      2535
      2532      2530      2533      2536      2533      2536      2539      2540
      2533      2536      2539      2541      2533      2536      2539      2542
      2534      2533      2536      2537      2534      2533      2536      2538
      2534      2533      2536      2539      2535      2533      2536      2537
      2535      2533      2536      2538      2535      2533      2536      2539
      2536      2539      2542      2543      2536      2539      2542      2544
      2537      2536      2539      2540      2537      2536      2539      2541
      2537      2536      2539      2542      2538      2536      2539      2540
      2538      2536      2539      2541      2538      2536      2539      2542
      2539      2542      2544      2545      2539      2542      2544      2546
      2540      2539      2542      2543      2540      2539      2542      2544
      2541      2539      2542      2543      2541      2539      2542      2544
      2542      2544      2546      2547      2542      2544      2546      2548
      2542      2544      2546      2549      2543      2542      2544      2545
      2543      2542      2544      2546      2544      2546      2549      2550
      2544      2546      2549      2551      2544      2546      2549      2552
      2545      2544      2546      2547      2545      2544      2546      2548
      2545      2544      2546      2549      2546      2549      2552      2553
      2546      2549      2552      2554      2546      2549      2552      2555
      2547      2546      2549      2550      2547      2546      2549      2551
      2547      2546      2549      2552      2548      2546      2549      2550
      2548      2546      2549      2551      2548      2546      2549      2552
      2549      2552      2555      2556      2549      2552      2555      2557
      2549      2552      2555      2558      2550      2549      2552      2553
      2550      2549      2552      2554      2550      2549      2552      2555
      2551      2549      2552      2553      2551      2549      2552      2554
      2551      2549      2552      2555      2552      2555      2558      2559
      2552      2555      2558      2560      2552      2555      2558      2561
      2553      2552      2555      2556      2553      2552      2555      2557
      2553      2552      2555      2558      2554      2552      2555      2556
      2554      2552      2555      2557      2554      2552      2555      2558
      2555      2558      2561      2562      2555      2558      2561      2563
      2555      2558      2561      2564      2556      2555      2558      2559
      2556      2555      2558      2560      2556      2555      2558      2561
      2557      2555      2558      2559      2557      2555      2558      2560
      2557      2555      2558      2561      2558      2561      2564      2565
      2558      2561      2564      2566      2558      2561      2564      2567
      2559      2558      2561      2562      2559      2558      2561      2563
      2559      2558      2561      2564      2560      2558      2561      2562
      2560      2558      2561      2563      2560      2558      2561      2564
      2561      2564      2567      2568      2561      2564      2567      2569
      2561      2564      2567      2570      2562      2561      2564      2565
      2562      2561      2564      2566      2562      2561      2564      2567
      2563      2561      2564      2565      2563      2561      2564      2566
      2563      2561      2564      2567      2565      2564      2567      2568
      2565      2564      2567      2569      2565      2564      2567      2570
      2566      2564      2567      2568      2566      2564      2567      2569
      2566      2564      2567      2570      2571      2572      2587      2588
      2571      2572      2587      2589      2571      2572      2587      2593
      2572      2571      2575      2576      2572      2571      2575      2577
      2572      2571      2575      2578      2572      2571      2579      2580
      2572      2571      2579      2581      2572      2571      2579      2582
      2572      2571      2583      2584      2572      2571      2583      2585
      2572      2571      2583      2586      2572      2587      2593      2590
      2573      2572      2571      2575      2573      2572      2571      2579
      2573      2572      2571      2583      2573      2572      2587      2588
      2573      2572      2587      2589      2573      2572      2587      2593
      2574      2572      2571      2575      2574      2572      2571      2579
      2574      2572      2571      2583      2574      2572      2587      2588
      2574      2572      2587      2589      2574      2572      2587      2593
      2575      2571      2572      2587      2575      2571      2579      2580
      2575      2571      2579      2581      2575      2571      2579      2582
      2575      2571      2583      2584      2575      2571      2583      2585
      2575      2571      2583      2586      2576      2575      2571      2579
      2576      2575      2571      2583      2577      2575      2571      2579
      2577      2575      2571      2583      2578      2575      2571      2579
      2578      2575      2571      2583      2579      2571      2572      2587
      2579      2571      2583      2584      2579      2571      2583      2585
      2579      2571      2583      2586      2580      2579      2571      2583
      2581      2579      2571      2583      2582      2579      2571      2583
      2583      2571      2572      2587      2587      2593      2590      2591
      2587      2593      2590      2592      2587      2593      2590      2594
      2588      2587      2593      2590      2589      2587      2593      2590
      2590      2594      2595      2596      2590      2594      2595      2597
      2590      2594      2595      2598      2591      2590      2594      2595
      2592      2590      2594      2595      2593      2590      2594      2595
      2594      2595      2598      2599      2594      2595      2598      2600
      2594      2595      2598      2606      2595      2598      2600      2601
      2595      2598      2606      2607      2595      2598      2606      2608
      2595      2598      2606      2609      2596      2595      2598      2599
      2596      2595      2598      2600      2596      2595      2598      2606
      2597      2595      2598      2599      2597      2595      2598      2600
      2597      2595      2598      2606      2598      2600      2601      2602
      2598      2600      2601      2603      2598      2606      2609      2610
      2599      2598      2600      2601      2599      2598      2606      2607
      2599      2598      2606      2608      2599      2598      2606      2609
      2600      2598      2606      2607      2600      2598      2606      2608
      2600      2598      2606      2609      2600      2601      2603      2604
      2600      2601      2603      2605      2600      2601      2603      2615
      2601      2600      2598      2606      2601      2603      2615      2616
      2601      2603      2615      2617      2601      2603      2615      2618
      2602      2601      2603      2604      2602      2601      2603      2605
      2602      2601      2603      2615      2603      2615      2618      2619
      2603      2615      2618      2620      2603      2615      2618      2621
      2604      2603      2615      2616      2604      2603      2615      2617
      2604      2603      2615      2618      2605      2603      2615      2616
      2605      2603      2615      2617      2605      2603      2615      2618
      2606      2609      2610      2611      2606      2609      2610      2612
      2607      2606      2609      2610      2608      2606      2609      2610
      2609      2610      2612      2613      2609      2610      2612      2614
      2609      2610      2612      2662      2610      2612      2662      2663
      2610      2612      2662      2664      2610      2612      2662      2665
      2611      2610      2612      2613      2611      2610      2612      2614
      2611      2610      2612      2662      2612      2662      2665      2666
      2612      2662      2665      2667      2612      2662      2665      2668
      2613      2612      2662      2663      2613      2612      2662      2664
      2613      2612      2662      2665      2614      2612      2662      2663
      2614      2612      2662      2664      2614      2612      2662      2665
      2615      2618      2621      2622      2615      2618      2621      2623
      2615      2618      2621      2624      2616      2615      2618      2619
      2616      2615      2618      2620      2616      2615      2618      2621
      2617      2615      2618      2619      2617      2615      2618      2620
      2617      2615      2618      2621      2618      2621      2624      2625
      2618      2621      2624      2626      2618      2621      2624      2627
      2619      2618      2621      2622      2619      2618      2621      2623
      2619      2618      2621      2624      2620      2618      2621      2622
      2620      2618      2621      2623      2620      2618      2621      2624
      2621      2624      2627      2628      2621      2624      2627      2629
      2621      2624      2627      2630      2622      2621      2624      2625
      2622      2621      2624      2626      2622      2621      2624      2627
      2623      2621      2624      2625      2623      2621      2624      2626
      2623      2621      2624      2627      2624      2627      2630      2631
      2624      2627      2630      2632      2624      2627      2630      2633
      2625      2624      2627      2628      2625      2624      2627      2629
      2625      2624      2627      2630      2626      2624      2627      2628
      2626      2624      2627      2629      2626      2624      2627      2630
      2627      2630      2633      2634      2627      2630      2633      2635
      2628      2627      2630      2631      2628      2627      2630      2632
      2628      2627      2630      2633      2629      2627      2630      2631
      2629      2627      2630      2632      2629      2627      2630      2633
      2630      2633      2635      2636      2630      2633      2635      2637
      2631      2630      2633      2634      2631      2630      2633      2635
      2632      2630      2633      2634      2632      2630      2633      2635
      2633      2635      2637      2638      2633      2635      2637      2639
      2633      2635      2637      2640      2634      2633      2635      2636
      2634      2633      2635      2637      2635      2637      2640      2641
      2635      2637      2640      2642      2635      2637      2640      2643
      2636      2635      2637      2638      2636      2635      2637      2639
      2636      2635      2637      2640      2637      2640      2643      2644
      2637      2640      2643      2645      2637      2640      2643      2646
      2638      2637      2640      2641      2638      2637      2640      2642
      2638      2637      2640      2643      2639      2637      2640      2641
      2639      2637      2640      2642      2639      2637      2640      2643
      2640      2643      2646      2647      2640      2643      2646      2648
      2640      2643      2646      2649      2641      2640      2643      2644
      2641      2640      2643      2645      2641      2640      2643      2646
      2642      2640      2643      2644      2642      2640      2643      2645
      2642      2640      2643      2646      2643      2646      2649      2650
      2643      2646      2649      2651      2643      2646      2649      2652
      2644      2643      2646      2647      2644      2643      2646      2648
      2644      2643      2646      2649      2645      2643      2646      2647
      2645      2643      2646      2648      2645      2643      2646      2649
      2646      2649      2652      2653      2646      2649      2652      2654
      2646      2649      2652      2655      2647      2646      2649      2650
      2647      2646      2649      2651      2647      2646      2649      2652
      2648      2646      2649      2650      2648      2646      2649      2651
      2648      2646      2649      2652      2649      2652      2655      2656
      2649      2652      2655      2657      2649      2652      2655      2658
      2650      2649      2652      2653      2650      2649      2652      2654
      2650      2649      2652      2655      2651      2649      2652      2653
      2651      2649      2652      2654      2651      2649      2652      2655
      2652      2655      2658      2659      2652      2655      2658      2660
      2652      2655      2658      2661      2653      2652      2655      2656
      2653      2652      2655      2657      2653      2652      2655      2658
      2654      2652      2655      2656      2654      2652      2655      2657
      2654      2652      2655      2658      2656      2655      2658      2659
      2656      2655      2658      2660      2656      2655      2658      2661
      2657      2655      2658      2659      2657      2655      2658      2660
      2657      2655      2658      2661      2662      2665      2668      2669
      2662      2665      2668      2670      2662      2665      2668      2671
      2663      2662      2665      2666      2663      2662      2665      2667
      2663      2662      2665      2668      2664      2662      2665      2666
      2664      2662      2665      2667      2664      2662      2665      2668
      2665      2668      2671      2672      2665      2668      2671      2673
      2665      2668      2671      2674      2666      2665      2668      2669
      2666      2665      2668      2670      2666      2665      2668      2671
      2667      2665      2668      2669      2667      2665      2668      2670
      2667      2665      2668      2671      2668      2671      2674      2675
      2668      2671      2674      2676      2668      2671      2674      2677
      2669      2668      2671      2672      2669      2668      2671      2673
      2669      2668      2671      2674      2670      2668      2671      2672
      2670      2668      2671      2673      2670      2668      2671      2674
      2671      2674      2677      2678      2671      2674      2677      2679
      2671      2674      2677      2680      2672      2671      2674      2675
      2672      2671      2674      2676      2672      2671      2674      2677
      2673      2671      2674      2675      2673      2671      2674      2676
      2673      2671      2674      2677      2674      2677      2680      2681
      2674      2677      2680      2682      2675      2674      2677      2678
      2675      2674      2677      2679      2675      2674      2677      2680
      2676      2674      2677      2678      2676      2674      2677      2679
      2676      2674      2677      2680      2677      2680      2682      2683
      2677      2680      2682      2684      2678      2677      2680      2681
      2678      2677      2680      2682      2679      2677      2680      2681
      2679      2677      2680      2682      2680      2682      2684      2685
      2680      2682      2684      2686      2680      2682      2684      2687
      2681      2680      2682      2683      2681      2680      2682      2684
      2682      2684      2687      2688      2682      2684      2687      2689
      2682      2684      2687      2690      2683      2682      2684      2685
      2683      2682      2684      2686      2683      2682      2684      2687
      2684      2687      2690      2691      2684      2687      2690      2692
      2684      2687      2690      2693      2685      2684      2687      2688
      2685      2684      2687      2689      2685      2684      2687      2690
      2686      2684      2687      2688      2686      2684      2687      2689
      2686      2684      2687      2690      2687      2690      2693      2694
      2687      2690      2693      2695      2687      2690      2693      2696
      2688      2687      2690      2691      2688      2687      2690      2692
      2688      2687      2690      2693      2689      2687      2690      2691
      2689      2687      2690      2692      2689      2687      2690      2693
      2690      2693      2696      2697      2690      2693      2696      2698
      2690      2693      2696      2699      2691      2690      2693      2694
      2691      2690      2693      2695      2691      2690      2693      2696
      2692      2690      2693      2694      2692      2690      2693      2695
      2692      2690      2693      2696      2693      2696      2699      2700
      2693      2696      2699      2701      2693      2696      2699      2702
      2694      2693      2696      2697      2694      2693      2696      2698
      2694      2693      2696      2699      2695      2693      2696      2697
      2695      2693      2696      2698      2695      2693      2696      2699
      2696      2699      2702      2703      2696      2699      2702      2704
      2696      2699      2702      2705      2697      2696      2699      2700
      2697      2696      2699      2701      2697      2696      2699      2702
      2698      2696      2699      2700      2698      2696      2699      2701
      2698      2696      2699      2702      2699      2702      2705      2706
      2699      2702      2705      2707      2699      2702      2705      2708
      2700      2699      2702      2703      2700      2699      2702      2704
      2700      2699      2702      2705      2701      2699      2702      2703
      2701      2699      2702      2704      2701      2699      2702      2705
      2703      2702      2705      2706      2703      2702      2705      2707
      2703      2702      2705      2708      2704      2702      2705      2706
      2704      2702      2705      2707      2704      2702      2705      2708
      2709      2710      2725      2726      2709      2710      2725      2727
      2709      2710      2725      2731      2710      2709      2713      2714
      2710      2709      2713      2715      2710      2709      2713      2716
      2710      2709      2717      2718      2710      2709      2717      2719
      2710      2709      2717      2720      2710      2709      2721      2722
      2710      2709      2721      2723      2710      2709      2721      2724
      2710      2725      2731      2728      2711      2710      2709      2713
      2711      2710      2709      2717      2711      2710      2709      2721
      2711      2710      2725      2726      2711      2710      2725      2727
      2711      2710      2725      2731      2712      2710      2709      2713
      2712      2710      2709      2717      2712      2710      2709      2721
      2712      2710      2725      2726      2712      2710      2725      2727
      2712      2710      2725      2731      2713      2709      2710      2725
      2713      2709      2717      2718      2713      2709      2717      2719
      2713      2709      2717      2720      2713      2709      2721      2722
      2713      2709      2721      2723      2713      2709      2721      2724
      2714      2713      2709      2717      2714      2713      2709      2721
      2715      2713      2709      2717      2715      2713      2709      2721
      2716      2713      2709      2717      2716      2713      2709      2721
      2717      2709      2710      2725      2717      2709      2721      2722
      2717      2709      2721      2723      2717      2709      2721      2724
      2718      2717      2709      2721      2719      2717      2709      2721
      2720      2717      2709      2721      2721      2709      2710      2725
      2725      2731      2728      2729      2725      2731      2728      2730
      2725      2731      2728      2732      2726      2725      2731      2728
      2727      2725      2731      2728      2728      2732      2733      2734
      2728      2732      2733      2735      2728      2732      2733      2736
      2729      2728      2732      2733      2730      2728      2732      2733
      2731      2728      2732      2733      2732      2733      2736      2737
      2732      2733      2736      2738      2732      2733      2736      2744
      2733      2736      2738      2739      2733      2736      2744      2745
      2733      2736      2744      2746      2733      2736      2744      2747
      2734      2733      2736      2737      2734      2733      2736      2738
      2734      2733      2736      2744      2735      2733      2736      2737
      2735      2733      2736      2738      2735      2733      2736      2744
      2736      2738      2739      2740      2736      2738      2739      2741
      2736      2744      2747      2748      2737      2736      2738      2739
      2737      2736      2744      2745      2737      2736      2744      2746
      2737      2736      2744      2747      2738      2736      2744      2745
      2738      2736      2744      2746      2738      2736      2744      2747
      2738      2739      2741      2742      2738      2739      2741      2743
      2738      2739      2741      2753      2739      2738      2736      2744
      2739      2741      2753      2754      2739      2741      2753      2755
      2739      2741      2753      2756      2740      2739      2741      2742
      2740      2739      2741      2743      2740      2739      2741      2753
      2741      2753      2756      2757      2741      2753      2756      2758
      2741      2753      2756      2759      2742      2741      2753      2754
      2742      2741      2753      2755      2742      2741      2753      2756
      2743      2741      2753      2754      2743      2741      2753      2755
      2743      2741      2753      2756      2744      2747      2748      2749
      2744      2747      2748      2750      2745      2744      2747      2748
      2746      2744      2747      2748      2747      2748      2750      2751
      2747      2748      2750      2752      2747      2748      2750      2800
      2748      2750      2800      2801      2748      2750      2800      2802
      2748      2750      2800      2803      2749      2748      2750      2751
      2749      2748      2750      2752      2749      2748      2750      2800
      2750      2800      2803      2804      2750      2800      2803      2805
      2750      2800      2803      2806      2751      2750      2800      2801
      2751      2750      2800      2802      2751      2750      2800      2803
      2752      2750      2800      2801      2752      2750      2800      2802
      2752      2750      2800      2803      2753      2756      2759      2760
      2753      2756      2759      2761      2753      2756      2759      2762
      2754      2753      2756      2757      2754      2753      2756      2758
      2754      2753      2756      2759      2755      2753      2756      2757
      2755      2753      2756      2758      2755      2753      2756      2759
      2756      2759      2762      2763      2756      2759      2762      2764
      2756      2759      2762      2765      2757      2756      2759      2760
      2757      2756      2759      2761      2757      2756      2759      2762
      2758      2756      2759      2760      2758      2756      2759      2761
      2758      2756      2759      2762      2759      2762      2765      2766
      2759      2762      2765      2767      2759      2762      2765      2768
      2760      2759      2762      2763      2760      2759      2762      2764
      2760      2759      2762      2765      2761      2759      2762      2763
      2761      2759      2762      2764      2761      2759      2762      2765
      2762      2765      2768      2769      2762      2765      2768      2770
      2762      2765      2768      2771      2763      2762      2765      2766
      2763      2762      2765      2767      2763      2762      2765      2768
      2764      2762      2765      2766      2764      2762      2765      2767
      2764      2762      2765      2768      2765      2768      2771      2772
      2765      2768      2771      2773      2766      2765      2768      2769
      2766      2765      2768      2770      2766      2765      2768      2771
      2767      2765      2768      2769      2767      2765      2768      2770
      2767      2765      2768      2771      2768      2771      2773      2774
      2768      2771      2773      2775      2769      2768      2771      2772
      2769      2768      2771      2773      2770      2768      2771      2772
      2770      2768      2771      2773      2771      2773      2775      2776
      2771      2773      2775      2777      2771      2773      2775      2778
      2772      2771      2773      2774      2772      2771      2773      2775
      2773      2775      2778      2779      2773      2775      2778      2780
      2773      2775      2778      2781      2774      2773      2775      2776
      2774      2773      2775      2777      2774      2773      2775      2778
      2775      2778      2781      2782      2775      2778      2781      2783
      2775      2778      2781      2784      2776      2775      2778      2779
      2776      2775      2778      2780      2776      2775      2778      2781
      2777      2775      2778      2779      2777      2775      2778      2780
      2777      2775      2778      2781      2778      2781      2784      2785
      2778      2781      2784      2786      2778      2781      2784      2787
      2779      2778      2781      2782      2779      2778      2781      2783
      2779      2778      2781      2784      2780      2778      2781      2782
      2780      2778      2781      2783      2780      2778      2781      2784
      2781      2784      2787      2788      2781      2784      2787      2789
      2781      2784      2787      2790      2782      2781      2784      2785
      2782      2781      2784      2786      2782      2781      2784      2787
      2783      2781      2784      2785      2783      2781      2784      2786
      2783      2781      2784      2787      2784      2787      2790      2791
      2784      2787      2790      2792      2784      2787      2790      2793
      2785      2784      2787      2788      2785      2784      2787      2789
      2785      2784      2787      2790      2786      2784      2787      2788
      2786      2784      2787      2789      2786      2784      2787      2790
      2787      2790      2793      2794      2787      2790      2793      2795
      2787      2790      2793      2796      2788      2787      2790      2791
      2788      2787      2790      2792      2788      2787      2790      2793
      2789      2787      2790      2791      2789      2787      2790      2792
      2789      2787      2790      2793      2790      2793      2796      2797
      2790      2793      2796      2798      2790      2793      2796      2799
      2791      2790      2793      2794      2791      2790      2793      2795
      2791      2790      2793      2796      2792      2790      2793      2794
      2792      2790      2793      2795      2792      2790      2793      2796
      2794      2793      2796      2797      2794      2793      2796      2798
      2794      2793      2796      2799      2795      2793      2796      2797
      2795      2793      2796      2798      2795      2793      2796      2799
      2800      2803      2806      2807      2800      2803      2806      2808
      2800      2803      2806      2809      2801      2800      2803      2804
      2801      2800      2803      2805      2801      2800      2803      2806
      2802      2800      2803      2804      2802      2800      2803      2805
      2802      2800      2803      2806      2803      2806      2809      2810
      2803      2806      2809      2811      2803      2806      2809      2812
      2804      2803      2806      2807      2804      2803      2806      2808
      2804      2803      2806      2809      2805      2803      2806      2807
      2805      2803      2806      2808      2805      2803      2806      2809
      2806      2809      2812      2813      2806      2809      2812      2814
      2806      2809      2812      2815      2807      2806      2809      2810
      2807      2806      2809      2811      2807      2806      2809      2812
      2808      2806      2809      2810      2808      2806      2809      2811
      2808      2806      2809      2812      2809      2812      2815      2816
      2809      2812      2815      2817      2809      2812      2815      2818
      2810      2809      2812      2813      2810      2809      2812      2814
      2810      2809      2812      2815      2811      2809      2812      2813
      2811      2809      2812      2814      2811      2809      2812      2815
      2812      2815      2818      2819      2812      2815      2818      2820
      2813      2812      2815      2816      2813      2812      2815      2817
      2813      2812      2815      2818      2814      2812      2815      2816
      2814      2812      2815      2817      2814      2812      2815      2818
      2815      2818      2820      2821      2815      2818      2820      2822
      2816      2815      2818      2819      2816      2815      2818      2820
      2817      2815      2818      2819      2817      2815      2818      2820
      2818      2820      2822      2823      2818      2820      2822      2824
      2818      2820      2822      2825      2819      2818      2820      2821
      2819      2818      2820      2822      2820      2822      2825      2826
      2820      2822      2825      2827      2820      2822      2825      2828
      2821      2820      2822      2823      2821      2820      2822      2824
      2821      2820      2822      2825      2822      2825      2828      2829
      2822      2825      2828      2830      2822      2825      2828      2831
      2823      2822      2825      2826      2823      2822      2825      2827
      2823      2822      2825      2828      2824      2822      2825      2826
      2824      2822      2825      2827      2824      2822      2825      2828
      2825      2828      2831      2832      2825      2828      2831      2833
      2825      2828      2831      2834      2826      2825      2828      2829
      2826      2825      2828      2830      2826      2825      2828      2831
      2827      2825      2828      2829      2827      2825      2828      2830
      2827      2825      2828      2831      2828      2831      2834      2835
      2828      2831      2834      2836      2828      2831      2834      2837
      2829      2828      2831      2832      2829      2828      2831      2833
      2829      2828      2831      2834      2830      2828      2831      2832
      2830      2828      2831      2833      2830      2828      2831      2834
      2831      2834      2837      2838      2831      2834      2837      2839
      2831      2834      2837      2840      2832      2831      2834      2835
      2832      2831      2834      2836      2832      2831      2834      2837
      2833      2831      2834      2835      2833      2831      2834      2836
      2833      2831      2834      2837      2834      2837      2840      2841
      2834      2837      2840      2842      2834      2837      2840      2843
      2835      2834      2837      2838      2835      2834      2837      2839
      2835      2834      2837      2840      2836      2834      2837      2838
      2836      2834      2837      2839      2836      2834      2837      2840
      2837      2840      2843      2844      2837      2840      2843      2845
      2837      2840      2843      2846      2838      2837      2840      2841
      2838      2837      2840      2842      2838      2837      2840      2843
      2839      2837      2840      2841      2839      2837      2840      2842
      2839      2837      2840      2843      2841      2840      2843      2844
      2841      2840      2843      2845      2841      2840      2843      2846
      2842      2840      2843      2844      2842      2840      2843      2845
      2842      2840      2843      2846      2847      2848      2863      2864
      2847      2848      2863      2865      2847      2848      2863      2869
      2848      2847      2851      2852      2848      2847      2851      2853
      2848      2847      2851      2854      2848      2847      2855      2856
      2848      2847      2855      2857      2848      2847      2855      2858
      2848      2847      2859      2860      2848      2847      2859      2861
      2848      2847      2859      2862      2848      2863      2869      2866
      2849      2848      2847      2851      2849      2848      2847      2855
      2849      2848      2847      2859      2849      2848      2863      2864
      2849      2848      2863      2865      2849      2848      2863      2869
      2850      2848      2847      2851      2850      2848      2847      2855
      2850      2848      2847      2859      2850      2848      2863      2864
      2850      2848      2863      2865      2850      2848      2863      2869
      2851      2847      2848      2863      2851      2847      2855      2856
      2851      2847      2855      2857      2851      2847      2855      2858
      2851      2847      2859      2860      2851      2847      2859      2861
      2851      2847      2859      2862      2852      2851      2847      2855
      2852      2851      2847      2859      2853      2851      2847      2855
      2853      2851      2847      2859      2854      2851      2847      2855
      2854      2851      2847      2859      2855      2847      2848      2863
      2855      2847      2859      2860      2855      2847      2859      2861
      2855      2847      2859      2862      2856      2855      2847      2859
      2857      2855      2847      2859      2858      2855      2847      2859
      2859      2847      2848      2863      2863      2869      2866      2867
      2863      2869      2866      2868      2863      2869      2866      2870
      2864      2863      2869      2866      2865      2863      2869      2866
      2866      2870      2871      2872      2866      2870      2871      2873
      2866      2870      2871      2874      2867      2866      2870      2871
      2868      2866      2870      2871      2869      2866      2870      2871
      2870      2871      2874      2875      2870      2871      2874      2876
      2870      2871      2874      2882      2871      2874      2876      2877
      2871      2874      2882      2883      2871      2874      2882      2884
      2871      2874      2882      2885      2872      2871      2874      2875
      2872      2871      2874      2876      2872      2871      2874      2882
      2873      2871      2874      2875      2873      2871      2874      2876
      2873      2871      2874      2882      2874      2876      2877      2878
      2874      2876      2877      2879      2874      2882      2885      2886
      2875      2874      2876      2877      2875      2874      2882      2883
      2875      2874      2882      2884      2875      2874      2882      2885
      2876      2874      2882      2883      2876      2874      2882      2884
      2876      2874      2882      2885      2876      2877      2879      2880
      2876      2877      2879      2881      2876      2877      2879      2891
      2877      2876      2874      2882      2877      2879      2891      2892
      2877      2879      2891      2893      2877      2879      2891      2894
      2878      2877      2879      2880      2878      2877      2879      2881
      2878      2877      2879      2891      2879      2891      2894      2895
      2879      2891      2894      2896      2879      2891      2894      2897
      2880      2879      2891      2892      2880      2879      2891      2893
      2880      2879      2891      2894      2881      2879      2891      2892
      2881      2879      2891      2893      2881      2879      2891      2894
      2882      2885      2886      2887      2882      2885      2886      2888
      2883      2882      2885      2886      2884      2882      2885      2886
      2885      2886      2888      2889      2885      2886      2888      2890
      2885      2886      2888      2938      2886      2888      2938      2939
      2886      2888      2938      2940      2886      2888      2938      2941
      2887      2886      2888      2889      2887      2886      2888      2890
      2887      2886      2888      2938      2888      2938      2941      2942
      2888      2938      2941      2943      2888      2938      2941      2944
      2889      2888      2938      2939      2889      2888      2938      2940
      2889      2888      2938      2941      2890      2888      2938      2939
      2890      2888      2938      2940      2890      2888      2938      2941
      2891      2894      2897      2898      2891      2894      2897      2899
      2891      2894      2897      2900      2892      2891      2894      2895
      2892      2891      2894      2896      2892      2891      2894      2897
      2893      2891      2894      2895      2893      2891      2894      2896
      2893      2891      2894      2897      2894      2897      2900      2901
      2894      2897      2900      2902      2894      2897      2900      2903
      2895      2894      2897      2898      2895      2894      2897      2899
      2895      2894      2897      2900      2896      2894      2897      2898
      2896      2894      2897      2899      2896      2894      2897      2900
      2897      2900      2903      2904      2897      2900      2903      2905
      2897      2900      2903      2906      2898      2897      2900      2901
      2898      2897      2900      2902      2898      2897      2900      2903
      2899      2897      2900      2901      2899      2897      2900      2902
      2899      2897      2900      2903      2900      2903      2906      2907
      2900      2903      2906      2908      2900      2903      2906      2909
      2901      2900      2903      2904      2901      2900      2903      2905
      2901      2900      2903      2906      2902      2900      2903      2904
      2902      2900      2903      2905      2902      2900      2903      2906
      2903      2906      2909      2910      2903      2906      2909      2911
      2904      2903      2906      2907      2904      2903      2906      2908
      2904      2903      2906      2909      2905      2903      2906      2907
      2905      2903      2906      2908      2905      2903      2906      2909
      2906      2909      2911      2912      2906      2909      2911      2913
      2907      2906      2909      2910      2907      2906      2909      2911
      2908      2906      2909      2910      2908      2906      2909      2911
      2909      2911      2913      2914      2909      2911      2913      2915
      2909      2911      2913      2916      2910      2909      2911      2912
      2910      2909      2911      2913      2911      2913      2916      2917
      2911      2913      2916      2918      2911      2913      2916      2919
      2912      2911      2913      2914      2912      2911      2913      2915
      2912      2911      2913      2916      2913      2916      2919      2920
      2913      2916      2919      2921      2913      2916      2919      2922
      2914      2913      2916      2917      2914      2913      2916      2918
      2914      2913      2916      2919      2915      2913      2916      2917
      2915      2913      2916      2918      2915      2913      2916      2919
      2916      2919      2922      2923      2916      2919      2922      2924
      2916      2919      2922      2925      2917      2916      2919      2920
      2917      2916      2919      2921      2917      2916      2919      2922
      2918      2916      2919      2920      2918      2916      2919      2921
      2918      2916      2919      2922      2919      2922      2925      2926
      2919      2922      2925      2927      2919      2922      2925      2928
      2920      2919      2922      2923      2920      2919      2922      2924
      2920      2919      2922      2925      2921      2919      2922      2923
      2921      2919      2922      2924      2921      2919      2922      2925
      2922      2925      2928      2929      2922      2925      2928      2930
      2922      2925      2928      2931      2923      2922      2925      2926
      2923      2922      2925      2927      2923      2922      2925      2928
      2924      2922      2925      2926      2924      2922      2925      2927
      2924      2922      2925      2928      2925      2928      2931      2932
      2925      2928      2931      2933      2925      2928      2931      2934
      2926      2925      2928      2929      2926      2925      2928      2930
      2926      2925      2928      2931      2927      2925      2928      2929
      2927      2925      2928      2930      2927      2925      2928      2931
      2928      2931      2934      2935      2928      2931      2934      2936
      2928      2931      2934      2937      2929      2928      2931      2932
      2929      2928      2931      2933      2929      2928      2931      2934
      2930      2928      2931      2932      2930      2928      2931      2933
      2930      2928      2931      2934      2932      2931      2934      2935
      2932      2931      2934      2936      2932      2931      2934      2937
      2933      2931      2934      2935      2933      2931      2934      2936
      2933      2931      2934      2937      2938      2941      2944      2945
      2938      2941      2944      2946      2938      2941      2944      2947
      2939      2938      2941      2942      2939      2938      2941      2943
      2939      2938      2941      2944      2940      2938      2941      2942
      2940      2938      2941      2943      2940      2938      2941      2944
      2941      2944      2947      2948      2941      2944      2947      2949
      2941      2944      2947      2950      2942      2941      2944      2945
      2942      2941      2944      2946      2942      2941      2944      2947
      2943      2941      2944      2945      2943      2941      2944      2946
      2943      2941      2944      2947      2944      2947      2950      2951
      2944      2947      2950      2952      2944      2947      2950      2953
      2945      2944      2947      2948      2945      2944      2947      2949
      2945      2944      2947      2950      2946      2944      2947      2948
      2946      2944      2947      2949      2946      2944      2947      2950
      2947      2950      2953      2954      2947      2950      2953      2955
      2947      2950      2953      2956      2948      2947      2950      2951
      2948      2947      2950      2952      2948      2947      2950      2953
      2949      2947      2950      2951      2949      2947      2950      2952
      2949      2947      2950      2953      2950      2953      2956      2957
      2950      2953      2956      2958      2951      2950      2953      2954
      2951      2950      2953      2955      2951      2950      2953      2956
      2952      2950      2953      2954      2952      2950      2953      2955
      2952      2950      2953      2956      2953      2956      2958      2959
      2953      2956      2958      2960      2954      2953      2956      2957
      2954      2953      2956      2958      2955      2953      2956      2957
      2955      2953      2956      2958      2956      2958      2960      2961
      2956      2958      2960      2962      2956      2958      2960      2963
      2957      2956      2958      2959      2957      2956      2958      2960
      2958      2960      2963      2964      2958      2960      2963      2965
      2958      2960      2963      2966      2959      2958      2960      2961
      2959      2958      2960      2962      2959      2958      2960      2963
      2960      2963      2966      2967      2960      2963      2966      2968
      2960      2963      2966      2969      2961      2960      2963      2964
      2961      2960      2963      2965      2961      2960      2963      2966
      2962      2960      2963      2964      2962      2960      2963      2965
      2962      2960      2963      2966      2963      2966      2969      2970
      2963      2966      2969      2971      2963      2966      2969      2972
      2964      2963      2966      2967      2964      2963      2966      2968
      2964      2963      2966      2969      2965      2963      2966      2967
      2965      2963      2966      2968      2965      2963      2966      2969
      2966      2969      2972      2973      2966      2969      2972      2974
      2966      2969      2972      2975      2967      2966      2969      2970
      2967      2966      2969      2971      2967      2966      2969      2972
      2968      2966      2969      2970      2968      2966      2969      2971
      2968      2966      2969      2972      2969      2972      2975      2976
      2969      2972      2975      2977      2969      2972      2975      2978
      2970      2969      2972      2973      2970      2969      2972      2974
      2970      2969      2972      2975      2971      2969      2972      2973
      2971      2969      2972      2974      2971      2969      2972      2975
      2972      2975      2978      2979      2972      2975      2978      2980
      2972      2975      2978      2981      2973      2972      2975      2976
      2973      2972      2975      2977      2973      2972      2975      2978
      2974      2972      2975      2976      2974      2972      2975      2977
      2974      2972      2975      2978      2975      2978      2981      2982
      2975      2978      2981      2983      2975      2978      2981      2984
      2976      2975      2978      2979      2976      2975      2978      2980
      2976      2975      2978      2981      2977      2975      2978      2979
      2977      2975      2978      2980      2977      2975      2978      2981
      2979      2978      2981      2982      2979      2978      2981      2983
      2979      2978      2981      2984      2980      2978      2981      2982
      2980      2978      2981      2983      2980      2978      2981      2984
      2985      2986      3001      3002      2985      2986      3001      3003
      2985      2986      3001      3007      2986      2985      2989      2990
      2986      2985      2989      2991      2986      2985      2989      2992
      2986      2985      2993      2994      2986      2985      2993      2995
      2986      2985      2993      2996      2986      2985      2997      2998
      2986      2985      2997      2999      2986      2985      2997      3000
      2986      3001      3007      3004      2987      2986      2985      2989
      2987      2986      2985      2993      2987      2986      2985      2997
      2987      2986      3001      3002      2987      2986      3001      3003
      2987      2986      3001      3007      2988      2986      2985      2989
      2988      2986      2985      2993      2988      2986      2985      2997
      2988      2986      3001      3002      2988      2986      3001      3003
      2988      2986      3001      3007      2989      2985      2986      3001
      2989      2985      2993      2994      2989      2985      2993      2995
      2989      2985      2993      2996      2989      2985      2997      2998
      2989      2985      2997      2999      2989      2985      2997      3000
      2990      2989      2985      2993      2990      2989      2985      2997
      2991      2989      2985      2993      2991      2989      2985      2997
      2992      2989      2985      2993      2992      2989      2985      2997
      2993      2985      2986      3001      2993      2985      2997      2998
      2993      2985      2997      2999      2993      2985      2997      3000
      2994      2993      2985      2997      2995      2993      2985      2997
      2996      2993      2985      2997      2997      2985      2986      3001
      3001      3007      3004      3005      3001      3007      3004      3006
      3001      3007      3004      3008      3002      3001      3007      3004
      3003      3001      3007      3004      3004      3008      3009      3010
      3004      3008      3009      3011      3004      3008      3009      3012
      3005      3004      3008      3009      3006      3004      3008      3009
      3007      3004      3008      3009      3008      3009      3012      3013
      3008      3009      3012      3014      3008      3009      3012      3020
      3009      3012      3014      3015      3009      3012      3020      3021
      3009      3012      3020      3022      3009      3012      3020      3023
      3010      3009      3012      3013      3010      3009      3012      3014
      3010      3009      3012      3020      3011      3009      3012      3013
      3011      3009      3012      3014      3011      3009      3012      3020
      3012      3014      3015      3016      3012      3014      3015      3017
      3012      3020      3023      3024      3013      3012      3014      3015
      3013      3012      3020      3021      3013      3012      3020      3022
      3013      3012      3020      3023      3014      3012      3020      3021
      3014      3012      3020      3022      3014      3012      3020      3023
      3014      3015      3017      3018      3014      3015      3017      3019
      3014      3015      3017      3029      3015      3014      3012      3020
      3015      3017      3029      3030      3015      3017      3029      3031
      3015      3017      3029      3032      3016      3015      3017      3018
      3016      3015      3017      3019      3016      3015      3017      3029
      3017      3029      3032      3033      3017      3029      3032      3034
      3017      3029      3032      3035      3018      3017      3029      3030
      3018      3017      3029      3031      3018      3017      3029      3032
      3019      3017      3029      3030      3019      3017      3029      3031
      3019      3017      3029      3032      3020      3023      3024      3025
      3020      3023      3024      3026      3021      3020      3023      3024
      3022      3020      3023      3024      3023      3024      3026      3027
      3023      3024      3026      3028      3023      3024      3026      3076
      3024      3026      3076      3077      3024      3026      3076      3078
      3024      3026      3076      3079      3025      3024      3026      3027
      3025      3024      3026      3028      3025      3024      3026      3076
      3026      3076      3079      3080      3026      3076      3079      3081
      3026      3076      3079      3082      3027      3026      3076      3077
      3027      3026      3076      3078      3027      3026      3076      3079
      3028      3026      3076      3077      3028      3026      3076      3078
      3028      3026      3076      3079      3029      3032      3035      3036
      3029      3032      3035      3037      3029      3032      3035      3038
      3030      3029      3032      3033      3030      3029      3032      3034
      3030      3029      3032      3035      3031      3029      3032      3033
      3031      3029      3032      3034      3031      3029      3032      3035
      3032      3035      3038      3039      3032      3035      3038      3040
      3032      3035      3038      3041      3033      3032      3035      3036
      3033      3032      3035      3037      3033      3032      3035      3038
      3034      3032      3035      3036      3034      3032      3035      3037
      3034      3032      3035      3038      3035      3038      3041      3042
      3035      3038      3041      3043      3035      3038      3041      3044
      3036      3035      3038      3039      3036      3035      3038      3040
      3036      3035      3038      3041      3037      3035      3038      3039
      3037      3035      3038      3040      3037      3035      3038      3041
      3038      3041      3044      3045      3038      3041      3044      3046
      3038      3041      3044      3047      3039      3038      3041      3042
      3039      3038      3041      3043      3039      3038      3041      3044
      3040      3038      3041      3042      3040      3038      3041      3043
      3040      3038      3041      3044      3041      3044      3047      3048
      3041      3044      3047      3049      3042      3041      3044      3045
      3042      3041      3044      3046      3042      3041      3044      3047
      3043      3041      3044      3045      3043      3041      3044      3046
      3043      3041      3044      3047      3044      3047      3049      3050
      3044      3047      3049      3051      3045      3044      3047      3048
      3045      3044      3047      3049      3046      3044      3047      3048
      3046      3044      3047      3049      3047      3049      3051      3052
      3047      3049      3051      3053      3047      3049      3051      3054
      3048      3047      3049      3050      3048      3047      3049      3051
      3049      3051      3054      3055      3049      3051      3054      3056
      3049      3051      3054      3057      3050      3049      3051      3052
      3050      3049      3051      3053      3050      3049      3051      3054
      3051      3054      3057      3058      3051      3054      3057      3059
      3051      3054      3057      3060      3052      3051      3054      3055
      3052      3051      3054      3056      3052      3051      3054      3057
      3053      3051      3054      3055      3053      3051      3054      3056
      3053      3051      3054      3057      3054      3057      3060      3061
      3054      3057      3060      3062      3054      3057      3060      3063
      3055      3054      3057      3058      3055      3054      3057      3059
      3055      3054      3057      3060      3056      3054      3057      3058
      3056      3054      3057      3059      3056      3054      3057      3060
      3057      3060      3063      3064      3057      3060      3063      3065
      3057      3060      3063      3066      3058      3057      3060      3061
      3058      3057      3060      3062      3058      3057      3060      3063
      3059      3057      3060      3061      3059      3057      3060      3062
      3059      3057      3060      3063      3060      3063      3066      3067
      3060      3063      3066      3068      3060      3063      3066      3069
      3061      3060      3063      3064      3061      3060      3063      3065
      3061      3060      3063      3066      3062      3060      3063      3064
      3062      3060      3063      3065      3062      3060      3063      3066
      3063      3066      3069      3070      3063      3066      3069      3071
      3063      3066      3069      3072      3064      3063      3066      3067
      3064      3063      3066      3068      3064      3063      3066      3069
      3065      3063      3066      3067      3065      3063      3066      3068
      3065      3063      3066      3069      3066      3069      3072      3073
      3066      3069      3072      3074      3066      3069      3072      3075
      3067      3066      3069      3070      3067      3066      3069      3071
      3067      3066      3069      3072      3068      3066      3069      3070
      3068      3066      3069      3071      3068      3066      3069      3072
      3070      3069      3072      3073      3070      3069      3072      3074
      3070      3069      3072      3075      3071      3069      3072      3073
      3071      3069      3072      3074      3071      3069      3072      3075
      3076      3079      3082      3083      3076      3079      3082      3084
      3076      3079      3082      3085      3077      3076      3079      3080
      3077      3076      3079      3081      3077      3076      3079      3082
      3078      3076      3079      3080      3078      3076      3079      3081
      3078      3076      3079      3082      3079      3082      3085      3086
      3079      3082      3085      3087      3079      3082      3085      3088
      3080      3079      3082      3083      3080      3079      3082      3084
      3080      3079      3082      3085      3081      3079      3082      3083
      3081      3079      3082      3084      3081      3079      3082      3085
      3082      3085      3088      3089      3082      3085      3088      3090
      3082      3085      3088      3091      3083      3082      3085      3086
      3083      3082      3085      3087      3083      3082      3085      3088
      3084      3082      3085      3086      3084      3082      3085      3087
      3084      3082      3085      3088      3085      3088      3091      3092
      3085      3088      3091      3093      3085      3088      3091      3094
      3086      3085      3088      3089      3086      3085      3088      3090
      3086      3085      3088      3091      3087      3085      3088      3089
      3087      3085      3088      3090      3087      3085      3088      3091
      3088      3091      3094      3095      3088      3091      3094      3096
      3089      3088      3091      3092      3089      3088      3091      3093
      3089      3088      3091      3094      3090      3088      3091      3092
      3090      3088      3091      3093      3090      3088      3091      3094
      3091      3094      3096      3097      3091      3094      3096      3098
      3092      3091      3094      3095      3092      3091      3094      3096
      3093      3091      3094      3095      3093      3091      3094      3096
      3094      3096      3098      3099      3094      3096      3098      3100
      3094      3096      3098      3101      3095      3094      3096      3097
      3095      3094      3096      3098      3096      3098      3101      3102
      3096      3098      3101      3103      3096      3098      3101      3104
      3097      3096      3098      3099      3097      3096      3098      3100
      3097      3096      3098      3101      3098      3101      3104      3105
      3098      3101      3104      3106      3098      3101      3104      3107
      3099      3098      3101      3102      3099      3098      3101      3103
      3099      3098      3101      3104      3100      3098      3101      3102
      3100      3098      3101      3103      3100      3098      3101      3104
      3101      3104      3107      3108      3101      3104      3107      3109
      3101      3104      3107      3110      3102      3101      3104      3105
      3102      3101      3104      3106      3102      3101      3104      3107
      3103      3101      3104      3105      3103      3101      3104      3106
      3103      3101      3104      3107      3104      3107      3110      3111
      3104      3107      3110      3112      3104      3107      3110      3113
      3105      3104      3107      3108      3105      3104      3107      3109
      3105      3104      3107      3110      3106      3104      3107      3108
      3106      3104      3107      3109      3106      3104      3107      3110
      3107      3110      3113      3114      3107      3110      3113      3115
      3107      3110      3113      3116      3108      3107      3110      3111
      3108      3107      3110      3112      3108      3107      3110      3113
      3109      3107      3110      3111      3109      3107      3110      3112
      3109      3107      3110      3113      3110      3113      3116      3117
      3110      3113      3116      3118      3110      3113      3116      3119
      3111      3110      3113      3114      3111      3110      3113      3115
      3111      3110      3113      3116      3112      3110      3113      3114
      3112      3110      3113      3115      3112      3110      3113      3116
      3113      3116      3119      3120      3113      3116      3119      3121
      3113      3116      3119      3122      3114      3113      3116      3117
      3114      3113      3116      3118      3114      3113      3116      3119
      3115      3113      3116      3117      3115      3113      3116      3118
      3115      3113      3116      3119      3117      3116      3119      3120
      3117      3116      3119      3121      3117      3116      3119      3122
      3118      3116      3119      3120      3118      3116      3119      3121
      3118      3116      3119      3122      3123      3124      3139      3140
      3123      3124      3139      3141      3123      3124      3139      3145
      3124      3123      3127      3128      3124      3123      3127      3129
      3124      3123      3127      3130      3124      3123      3131      3132
      3124      3123      3131      3133      3124      3123      3131      3134
      3124      3123      3135      3136      3124      3123      3135      3137
      3124      3123      3135      3138      3124      3139      3145      3142
      3125      3124      3123      3127      3125      3124      3123      3131
      3125      3124      3123      3135      3125      3124      3139      3140
      3125      3124      3139      3141      3125      3124      3139      3145
      3126      3124      3123      3127      3126      3124      3123      3131
      3126      3124      3123      3135      3126      3124      3139      3140
      3126      3124      3139      3141      3126      3124      3139      3145
      3127      3123      3124      3139      3127      3123      3131      3132
      3127      3123      3131      3133      3127      3123      3131      3134
      3127      3123      3135      3136      3127      3123      3135      3137
      3127      3123      3135      3138      3128      3127      3123      3131
      3128      3127      3123      3135      3129      3127      3123      3131
      3129      3127      3123      3135      3130      3127      3123      3131
      3130      3127      3123      3135      3131      3123      3124      3139
      3131      3123      3135      3136      3131      3123      3135      3137
      3131      3123      3135      3138      3132      3131      3123      3135
      3133      3131      3123      3135      3134      3131      3123      3135
      3135      3123      3124      3139      3139      3145      3142      3143
      3139      3145      3142      3144      3139      3145      3142      3146
      3140      3139      3145      3142      3141      3139      3145      3142
      3142      3146      3147      3148      3142      3146      3147      3149
      3142      3146      3147      3150      3143      3142      3146      3147
      3144      3142      3146      3147      3145      3142      3146      3147
      3146      3147      3150      3151      3146      3147      3150      3152
      3146      3147      3150      3158      3147      3150      3152      3153
      3147      3150      3158      3159      3147      3150      3158      3160
      3147      3150      3158      3161      3148      3147      3150      3151
      3148      3147      3150      3152      3148      3147      3150      3158
      3149      3147      3150      3151      3149      3147      3150      3152
      3149      3147      3150      3158      3150      3152      3153      3154
      3150      3152      3153      3155      3150      3158      3161      3162
      3151      3150      3152      3153      3151      3150      3158      3159
      3151      3150      3158      3160      3151      3150      3158      3161
      3152      3150      3158      3159      3152      3150      3158      3160
      3152      3150      3158      3161      3152      3153      3155      3156
      3152      3153      3155      3157      3152      3153      3155      3167
      3153      3152      3150      3158      3153      3155      3167      3168
      3153      3155      3167      3169      3153      3155      3167      3170
      3154      3153      3155      3156      3154      3153      3155      3157
      3154      3153      3155      3167      3155      3167      3170      3171
      3155      3167      3170      3172      3155      3167      3170      3173
      3156      3155      3167      3168      3156      3155      3167      3169
      3156      3155      3167      3170      3157      3155      3167      3168
      3157      3155      3167      3169      3157      3155      3167      3170
      3158      3161      3162      3163      3158      3161      3162      3164
      3159      3158      3161      3162      3160      3158      3161      3162
      3161      3162      3164      3165      3161      3162      3164      3166
      3161      3162      3164      3214      3162      3164      3214      3215
      3162      3164      3214      3216      3162      3164      3214      3217
      3163      3162      3164      3165      3163      3162      3164      3166
      3163      3162      3164      3214      3164      3214      3217      3218
      3164      3214      3217      3219      3164      3214      3217      3220
      3165      3164      3214      3215      3165      3164      3214      3216
      3165      3164      3214      3217      3166      3164      3214      3215
      3166      3164      3214      3216      3166      3164      3214      3217
      3167      3170      3173      3174      3167      3170      3173      3175
      3167      3170      3173      3176      3168      3167      3170      3171
      3168      3167      3170      3172      3168      3167      3170      3173
      3169      3167      3170      3171      3169      3167      3170      3172
      3169      3167      3170      3173      3170      3173      3176      3177
      3170      3173      3176      3178      3170      3173      3176      3179
      3171      3170      3173      3174      3171      3170      3173      3175
      3171      3170      3173      3176      3172      3170      3173      3174
      3172      3170      3173      3175      3172      3170      3173      3176
      3173      3176      3179      3180      3173      3176      3179      3181
      3173      3176      3179      3182      3174      3173      3176      3177
      3174      3173      3176      3178      3174      3173      3176      3179
      3175      3173      3176      3177      3175      3173      3176      3178
      3175      3173      3176      3179      3176      3179      3182      3183
      3176      3179      3182      3184      3176      3179      3182      3185
      3177      3176      3179      3180      3177      3176      3179      3181
      3177      3176      3179      3182      3178      3176      3179      3180
      3178      3176      3179      3181      3178      3176      3179      3182
      3179      3182      3185      3186      3179      3182      3185      3187
      3180      3179      3182      3183      3180      3179      3182      3184
      3180      3179      3182      3185      3181      3179      3182      3183
      3181      3179      3182      3184      3181      3179      3182      3185
      3182      3185      3187      3188      3182      3185      3187      3189
      3183      3182      3185      3186      3183      3182      3185      3187
      3184      3182      3185      3186      3184      3182      3185      3187
      3185      3187      3189      3190      3185      3187      3189      3191
      3185      3187      3189      3192      3186      3185      3187      3188
      3186      3185      3187      3189      3187      3189      3192      3193
      3187      3189      3192      3194      3187      3189      3192      3195
      3188      3187      3189      3190      3188      3187      3189      3191
      3188      3187      3189      3192      3189      3192      3195      3196
      3189      3192      3195      3197      3189      3192      3195      3198
      3190      3189      3192      3193      3190      3189      3192      3194
      3190      3189      3192      3195      3191      3189      3192      3193
      3191      3189      3192      3194      3191      3189      3192      3195
      3192      3195      3198      3199      3192      3195      3198      3200
      3192      3195      3198      3201      3193      3192      3195      3196
      3193      3192      3195      3197      3193      3192      3195      3198
      3194      3192      3195      3196      3194      3192      3195      3197
      3194      3192      3195      3198      3195      3198      3201      3202
      3195      3198      3201      3203      3195      3198      3201      3204
      3196      3195      3198      3199      3196      3195      3198      3200
      3196      3195      3198      3201      3197      3195      3198      3199
      3197      3195      3198      3200      3197      3195      3198      3201
      3198      3201      3204      3205      3198      3201      3204      3206
      3198      3201      3204      3207      3199      3198      3201      3202
      3199      3198      3201      3203      3199      3198      3201      3204
      3200      3198      3201      3202      3200      3198      3201      3203
      3200      3198      3201      3204      3201      3204      3207      3208
      3201      3204      3207      3209      3201      3204      3207      3210
      3202      3201      3204      3205      3202      3201      3204      3206
      3202      3201      3204      3207      3203      3201      3204      3205
      3203      3201      3204      3206      3203      3201      3204      3207
      3204      3207      3210      3211      3204      3207      3210      3212
      3204      3207      3210      3213      3205      3204      3207      3208
      3205      3204      3207      3209      3205      3204      3207      3210
      3206      3204      3207      3208      3206      3204      3207      3209
      3206      3204      3207      3210      3208      3207      3210      3211
      3208      3207      3210      3212      3208      3207      3210      3213
      3209      3207      3210      3211      3209      3207      3210      3212
      3209      3207      3210      3213      3214      3217      3220      3221
      3214      3217      3220      3222      3214      3217      3220      3223
      3215      3214      3217      3218      3215      3214      3217      3219
      3215      3214      3217      3220      3216      3214      3217      3218
      3216      3214      3217      3219      3216      3214      3217      3220
      3217      3220      3223      3224      3217      3220      3223      3225
      3217      3220      3223      3226      3218      3217      3220      3221
      3218      3217      3220      3222      3218      3217      3220      3223
      3219      3217      3220      3221      3219      3217      3220      3222
      3219      3217      3220      3223      3220      3223      3226      3227
      3220      3223      3226      3228      3220      3223      3226      3229
      3221      3220      3223      3224      3221      3220      3223      3225
      3221      3220      3223      3226      3222      3220      3223      3224
      3222      3220      3223      3225      3222      3220      3223      3226
      3223      3226      3229      3230      3223      3226      3229      3231
      3223      3226      3229      3232      3224      3223      3226      3227
      3224      3223      3226      3228      3224      3223      3226      3229
      3225      3223      3226      3227      3225      3223      3226      3228
      3225      3223      3226      3229      3226      3229      3232      3233
      3226      3229      3232      3234      3227      3226      3229      3230
      3227      3226      3229      3231      3227      3226      3229      3232
      3228      3226      3229      3230      3228      3226      3229      3231
      3228      3226      3229      3232      3229      3232      3234      3235
      3229      3232      3234      3236      3230      3229      3232      3233
      3230      3229      3232      3234      3231      3229      3232      3233
      3231      3229      3232      3234      3232      3234      3236      3237
      3232      3234      3236      3238      3232      3234      3236      3239
      3233      3232      3234      3235      3233      3232      3234      3236
      3234      3236      3239      3240      3234      3236      3239      3241
      3234      3236      3239      3242      3235      3234      3236      3237
      3235      3234      3236      3238      3235      3234      3236      3239
      3236      3239      3242      3243      3236      3239      3242      3244
      3236      3239      3242      3245      3237      3236      3239      3240
      3237      3236      3239      3241      3237      3236      3239      3242
      3238      3236      3239      3240      3238      3236      3239      3241
      3238      3236      3239      3242      3239      3242      3245      3246
      3239      3242      3245      3247      3239      3242      3245      3248
      3240      3239      3242      3243      3240      3239      3242      3244
      3240      3239      3242      3245      3241      3239      3242      3243
      3241      3239      3242      3244      3241      3239      3242      3245
      3242      3245      3248      3249      3242      3245      3248      3250
      3242      3245      3248      3251      3243      3242      3245      3246
      3243      3242      3245      3247      3243      3242      3245      3248
      3244      3242      3245      3246      3244      3242      3245      3247
      3244      3242      3245      3248      3245      3248      3251      3252
      3245      3248      3251      3253      3245      3248      3251      3254
      3246      3245      3248      3249      3246      3245      3248      3250
      3246      3245      3248      3251      3247      3245      3248      3249
      3247      3245      3248      3250      3247      3245      3248      3251
      3248      3251      3254      3255      3248      3251      3254      3256
      3248      3251      3254      3257      3249      3248      3251      3252
      3249      3248      3251      3253      3249      3248      3251      3254
      3250      3248      3251      3252      3250      3248      3251      3253
      3250      3248      3251      3254      3251      3254      3257      3258
      3251      3254      3257      3259      3251      3254      3257      3260
      3252      3251      3254      3255      3252      3251      3254      3256
      3252      3251      3254      3257      3253      3251      3254      3255
      3253      3251      3254      3256      3253      3251      3254      3257
      3255      3254      3257      3258      3255      3254      3257      3259
      3255      3254      3257      3260      3256      3254      3257      3258
      3256      3254      3257      3259      3256      3254      3257      3260
      3261      3262      3277      3278      3261      3262      3277      3279
      3261      3262      3277      3283      3262      3261      3265      3266
      3262      3261      3265      3267      3262      3261      3265      3268
      3262      3261      3269      3270      3262      3261      3269      3271
      3262      3261      3269      3272      3262      3261      3273      3274
      3262      3261      3273      3275      3262      3261      3273      3276
      3262      3277      3283      3280      3263      3262      3261      3265
      3263      3262      3261      3269      3263      3262      3261      3273
      3263      3262      3277      3278      3263      3262      3277      3279
      3263      3262      3277      3283      3264      3262      3261      3265
      3264      3262      3261      3269      3264      3262      3261      3273
      3264      3262      3277      3278      3264      3262      3277      3279
      3264      3262      3277      3283      3265      3261      3262      3277
      3265      3261      3269      3270      3265      3261      3269      3271
      3265      3261      3269      3272      3265      3261      3273      3274
      3265      3261      3273      3275      3265      3261      3273      3276
      3266      3265      3261      3269      3266      3265      3261      3273
      3267      3265      3261      3269      3267      3265      3261      3273
      3268      3265      3261      3269      3268      3265      3261      3273
      3269      3261      3262      3277      3269      3261      3273      3274
      3269      3261      3273      3275      3269      3261      3273      3276
      3270      3269      3261      3273      3271      3269      3261      3273
      3272      3269      3261      3273      3273      3261      3262      3277
      3277      3283      3280      3281      3277      3283      3280      3282
      3277      3283      3280      3284      3278      3277      3283      3280
      3279      3277      3283      3280      3280      3284      3285      3286
      3280      3284      3285      3287      3280      3284      3285      3288
      3281      3280      3284      3285      3282      3280      3284      3285
      3283      3280      3284      3285      3284      3285      3288      3289
      3284      3285      3288      3290      3284      3285      3288      3296
      3285      3288      3290      3291      3285      3288      3296      3297
      3285      3288      3296      3298      3285      3288      3296      3299
      3286      3285      3288      3289      3286      3285      3288      3290
      3286      3285      3288      3296      3287      3285      3288      3289
      3287      3285      3288      3290      3287      3285      3288      3296
      3288      3290      3291      3292      3288      3290      3291      3293
      3288      3296      3299      3300      3289      3288      3290      3291
      3289      3288      3296      3297      3289      3288      3296      3298
      3289      3288      3296      3299      3290      3288      3296      3297
      3290      3288      3296      3298      3290      3288      3296      3299
      3290      3291      3293      3294      3290      3291      3293      3295
      3290      3291      3293      3305      3291      3290      3288      3296
      3291      3293      3305      3306      3291      3293      3305      3307
      3291      3293      3305      3308      3292      3291      3293      3294
      3292      3291      3293      3295      3292      3291      3293      3305
      3293      3305      3308      3309      3293      3305      3308      3310
      3293      3305      3308      3311      3294      3293      3305      3306
      3294      3293      3305      3307      3294      3293      3305      3308
      3295      3293      3305      3306      3295      3293      3305      3307
      3295      3293      3305      3308      3296      3299      3300      3301
      3296      3299      3300      3302      3297      3296      3299      3300
      3298      3296      3299      3300      3299      3300      3302      3303
      3299      3300      3302      3304      3299      3300      3302      3352
      3300      3302      3352      3353      3300      3302      3352      3354
      3300      3302      3352      3355      3301      3300      3302      3303
      3301      3300      3302      3304      3301      3300      3302      3352
      3302      3352      3355      3356      3302      3352      3355      3357
      3302      3352      3355      3358      3303      3302      3352      3353
      3303      3302      3352      3354      3303      3302      3352      3355
      3304      3302      3352      3353      3304      3302      3352      3354
      3304      3302      3352      3355      3305      3308      3311      3312
      3305      3308      3311      3313      3305      3308      3311      3314
      3306      3305      3308      3309      3306      3305      3308      3310
      3306      3305      3308      3311      3307      3305      3308      3309
      3307      3305      3308      3310      3307      3305      3308      3311
      3308      3311      3314      3315      3308      3311      3314      3316
      3308      3311      3314      3317      3309      3308      3311      3312
      3309      3308      3311      3313      3309      3308      3311      3314
      3310      3308      3311      3312      3310      3308      3311      3313
      3310      3308      3311      3314      3311      3314      3317      3318
      3311      3314      3317      3319      3311      3314      3317      3320
      3312      3311      3314      3315      3312      3311      3314      3316
      3312      3311      3314      3317      3313      3311      3314      3315
      3313      3311      3314      3316      3313      3311      3314      3317
      3314      3317      3320      3321      3314      3317      3320      3322
      3314      3317      3320      3323      3315      3314      3317      3318
      3315      3314      3317      3319      3315      3314      3317      3320
      3316      3314      3317      3318      3316      3314      3317      3319
      3316      3314      3317      3320      3317      3320      3323      3324
      3317      3320      3323      3325      3318      3317      3320      3321
      3318      3317      3320      3322      3318      3317      3320      3323
      3319      3317      3320      3321      3319      3317      3320      3322
      3319      3317      3320      3323      3320      3323      3325      3326
      3320      3323      3325      3327      3321      3320      3323      3324
      3321      3320      3323      3325      3322      3320      3323      3324
      3322      3320      3323      3325      3323      3325      3327      3328
      3323      3325      3327      3329      3323      3325      3327      3330
      3324      3323      3325      3326      3324      3323      3325      3327
      3325      3327      3330      3331      3325      3327      3330      3332
      3325      3327      3330      3333      3326      3325      3327      3328
      3326      3325      3327      3329      3326      3325      3327      3330
      3327      3330      3333      3334      3327      3330      3333      3335
      3327      3330      3333      3336      3328      3327      3330      3331
      3328      3327      3330      3332      3328      3327      3330      3333
      3329      3327      3330      3331      3329      3327      3330      3332
      3329      3327      3330      3333      3330      3333      3336      3337
      3330      3333      3336      3338      3330      3333      3336      3339
      3331      3330      3333      3334      3331      3330      3333      3335
      3331      3330      3333      3336      3332      3330      3333      3334
      3332      3330      3333      3335      3332      3330      3333      3336
      3333      3336      3339      3340      3333      3336      3339      3341
      3333      3336      3339      3342      3334      3333      3336      3337
      3334      3333      3336      3338      3334      3333      3336      3339
      3335      3333      3336      3337      3335      3333      3336      3338
      3335      3333      3336      3339      3336      3339      3342      3343
      3336      3339      3342      3344      3336      3339      3342      3345
      3337      3336      3339      3340      3337      3336      3339      3341
      3337      3336      3339      3342      3338      3336      3339      3340
      3338      3336      3339      3341      3338      3336      3339      3342
      3339      3342      3345      3346      3339      3342      3345      3347
      3339      3342      3345      3348      3340      3339      3342      3343
      3340      3339      3342      3344      3340      3339      3342      3345
      3341      3339      3342      3343      3341      3339      3342      3344
      3341      3339      3342      3345      3342      3345      3348      3349
      3342      3345      3348      3350      3342      3345      3348      3351
      3343      3342      3345      3346      3343      3342      3345      3347
      3343      3342      3345      3348      3344      3342      3345      3346
      3344      3342      3345      3347      3344      3342      3345      3348
      3346      3345      3348      3349      3346      3345      3348      3350
      3346      3345      3348      3351      3347      3345      3348      3349
      3347      3345      3348      3350      3347      3345      3348      3351
      3352      3355      3358      3359      3352      3355      3358      3360
      3352      3355      3358      3361      3353      3352      3355      3356
      3353      3352      3355      3357      3353      3352      3355      3358
      3354      3352      3355      3356      3354      3352      3355      3357
      3354      3352      3355      3358      3355      3358      3361      3362
      3355      3358      3361      3363      3355      3358      3361      3364
      3356      3355      3358      3359      3356      3355      3358      3360
      3356      3355      3358      3361      3357      3355      3358      3359
      3357      3355      3358      3360      3357      3355      3358      3361
      3358      3361      3364      3365      3358      3361      3364      3366
      3358      3361      3364      3367      3359      3358      3361      3362
      3359      3358      3361      3363      3359      3358      3361      3364
      3360      3358      3361      3362      3360      3358      3361      3363
      3360      3358      3361      3364      3361      3364      3367      3368
      3361      3364      3367      3369      3361      3364      3367      3370
      3362      3361      3364      3365      3362      3361      3364      3366
      3362      3361      3364      3367      3363      3361      3364      3365
      3363      3361      3364      3366      3363      3361      3364      3367
      3364      3367      3370      3371      3364      3367      3370      3372
      3365      3364      3367      3368      3365      3364      3367      3369
      3365      3364      3367      3370      3366      3364      3367      3368
      3366      3364      3367      3369      3366      3364      3367      3370
      3367      3370      3372      3373      3367      3370      3372      3374
      3368      3367      3370      3371      3368      3367      3370      3372
      3369      3367      3370      3371      3369      3367      3370      3372
      3370      3372      3374      3375      3370      3372      3374      3376
      3370      3372      3374      3377      3371      3370      3372      3373
      3371      3370      3372      3374      3372      3374      3377      3378
      3372      3374      3377      3379      3372      3374      3377      3380
      3373      3372      3374      3375      3373      3372      3374      3376
      3373      3372      3374      3377      3374      3377      3380      3381
      3374      3377      3380      3382      3374      3377      3380      3383
      3375      3374      3377      3378      3375      3374      3377      3379
      3375      3374      3377      3380      3376      3374      3377      3378
      3376      3374      3377      3379      3376      3374      3377      3380
      3377      3380      3383      3384      3377      3380      3383      3385
      3377      3380      3383      3386      3378      3377      3380      3381
      3378      3377      3380      3382      3378      3377      3380      3383
      3379      3377      3380      3381      3379      3377      3380      3382
      3379      3377      3380      3383      3380      3383      3386      3387
      3380      3383      3386      3388      3380      3383      3386      3389
      3381      3380      3383      3384      3381      3380      3383      3385
      3381      3380      3383      3386      3382      3380      3383      3384
      3382      3380      3383      3385      3382      3380      3383      3386
      3383      3386      3389      3390      3383      3386      3389      3391
      3383      3386      3389      3392      3384      3383      3386      3387
      3384      3383      3386      3388      3384      3383      3386      3389
      3385      3383      3386      3387      3385      3383      3386      3388
      3385      3383      3386      3389      3386      3389      3392      3393
      3386      3389      3392      3394      3386      3389      3392      3395
      3387      3386      3389      3390      3387      3386      3389      3391
      3387      3386      3389      3392      3388      3386      3389      3390
      3388      3386      3389      3391      3388      3386      3389      3392
      3389      3392      3395      3396      3389      3392      3395      3397
      3389      3392      3395      3398      3390      3389      3392      3393
      3390      3389      3392      3394      3390      3389      3392      3395
      3391      3389      3392      3393      3391      3389      3392      3394
      3391      3389      3392      3395      3393      3392      3395      3396
      3393      3392      3395      3397      3393      3392      3395      3398
      3394      3392      3395      3396      3394      3392      3395      3397
      3394      3392      3395      3398      3399      3400      3415      3416
      3399      3400      3415      3417      3399      3400      3415      3421
      3400      3399      3403      3404      3400      3399      3403      3405
      3400      3399      3403      3406      3400      3399      3407      3408
      3400      3399      3407      3409      3400      3399      3407      3410
      3400      3399      3411      3412      3400      3399      3411      3413
      3400      3399      3411      3414      3400      3415      3421      3418
      3401      3400      3399      3403      3401      3400      3399      3407
      3401      3400      3399      3411      3401      3400      3415      3416
      3401      3400      3415      3417      3401      3400      3415      3421
      3402      3400      3399      3403      3402      3400      3399      3407
      3402      3400      3399      3411      3402      3400      3415      3416
      3402      3400      3415      3417      3402      3400      3415      3421
      3403      3399      3400      3415      3403      3399      3407      3408
      3403      3399      3407      3409      3403      3399      3407      3410
      3403      3399      3411      3412      3403      3399      3411      3413
      3403      3399      3411      3414      3404      3403      3399      3407
      3404      3403      3399      3411      3405      3403      3399      3407
      3405      3403      3399      3411      3406      3403      3399      3407
      3406      3403      3399      3411      3407      3399      3400      3415
      3407      3399      3411      3412      3407      3399      3411      3413
      3407      3399      3411      3414      3408      3407      3399      3411
      3409      3407      3399      3411      3410      3407      3399      3411
      3411      3399      3400      3415      3415      3421      3418      3419
      3415      3421      3418      3420      3415      3421      3418      3422
      3416      3415      3421      3418      3417      3415      3421      3418
      3418      3422      3423      3424      3418      3422      3423      3425
      3418      3422      3423      3426      3419      3418      3422      3423
      3420      3418      3422      3423      3421      3418      3422      3423
      3422      3423      3426      3427      3422      3423      3426      3428
      3422      3423      3426      3434      3423      3426      3428      3429
      3423      3426      3434      3435      3423      3426      3434      3436
      3423      3426      3434      3437      3424      3423      3426      3427
      3424      3423      3426      3428      3424      3423      3426      3434
      3425      3423      3426      3427      3425      3423      3426      3428
      3425      3423      3426      3434      3426      3428      3429      3430
      3426      3428      3429      3431      3426      3434      3437      3438
      3427      3426      3428      3429      3427      3426      3434      3435
      3427      3426      3434      3436      3427      3426      3434      3437
      3428      3426      3434      3435      3428      3426      3434      3436
      3428      3426      3434      3437      3428      3429      3431      3432
      3428      3429      3431      3433      3428      3429      3431      3443
      3429      3428      3426      3434      3429      3431      3443      3444
      3429      3431      3443      3445      3429      3431      3443      3446
      3430      3429      3431      3432      3430      3429      3431      3433
      3430      3429      3431      3443      3431      3443      3446      3447
      3431      3443      3446      3448      3431      3443      3446      3449
      3432      3431      3443      3444      3432      3431      3443      3445
      3432      3431      3443      3446      3433      3431      3443      3444
      3433      3431      3443      3445      3433      3431      3443      3446
      3434      3437      3438      3439      3434      3437      3438      3440
      3435      3434      3437      3438      3436      3434      3437      3438
      3437      3438      3440      3441      3437      3438      3440      3442
      3437      3438      3440      3490      3438      3440      3490      3491
      3438      3440      3490      3492      3438      3440      3490      3493
      3439      3438      3440      3441      3439      3438      3440      3442
      3439      3438      3440      3490      3440      3490      3493      3494
      3440      3490      3493      3495      3440      3490      3493      3496
      3441      3440      3490      3491      3441      3440      3490      3492
      3441      3440      3490      3493      3442      3440      3490      3491
      3442      3440      3490      3492      3442      3440      3490      3493
      3443      3446      3449      3450      3443      3446      3449      3451
      3443      3446      3449      3452      3444      3443      3446      3447
      3444      3443      3446      3448      3444      3443      3446      3449
      3445      3443      3446      3447      3445      3443      3446      3448
      3445      3443      3446      3449      3446      3449      3452      3453
      3446      3449      3452      3454      3446      3449      3452      3455
      3447      3446      3449      3450      3447      3446      3449      3451
      3447      3446      3449      3452      3448      3446      3449      3450
      3448      3446      3449      3451      3448      3446      3449      3452
      3449      3452      3455      3456      3449      3452      3455      3457
      3449      3452      3455      3458      3450      3449      3452      3453
      3450      3449      3452      3454      3450      3449      3452      3455
      3451      3449      3452      3453      3451      3449      3452      3454
      3451      3449      3452      3455      3452      3455      3458      3459
      3452      3455      3458      3460      3452      3455      3458      3461
      3453      3452      3455      3456      3453      3452      3455      3457
      3453      3452      3455      3458      3454      3452      3455      3456
      3454      3452      3455      3457      3454      3452      3455      3458
      3455      3458      3461      3462      3455      3458      3461      3463
      3456      3455      3458      3459      3456      3455      3458      3460
      3456      3455      3458      3461      3457      3455      3458      3459
      3457      3455      3458      3460      3457      3455      3458      3461
      3458      3461      3463      3464      3458      3461      3463      3465
      3459      3458      3461      3462      3459      3458      3461      3463
      3460      3458      3461      3462      3460      3458      3461      3463
      3461      3463      3465      3466      3461      3463      3465      3467
      3461      3463      3465      3468      3462      3461      3463      3464
      3462      3461      3463      3465      3463      3465      3468      3469
      3463      3465      3468      3470      3463      3465      3468      3471
      3464      3463      3465      3466      3464      3463      3465      3467
      3464      3463      3465      3468      3465      3468      3471      3472
      3465      3468      3471      3473      3465      3468      3471      3474
      3466      3465      3468      3469      3466      3465      3468      3470
      3466      3465      3468      3471      3467      3465      3468      3469
      3467      3465      3468      3470      3467      3465      3468      3471
      3468      3471      3474      3475      3468      3471      3474      3476
      3468      3471      3474      3477      3469      3468      3471      3472
      3469      3468      3471      3473      3469      3468      3471      3474
      3470      3468      3471      3472      3470      3468      3471      3473
      3470      3468      3471      3474      3471      3474      3477      3478
      3471      3474      3477      3479      3471      3474      3477      3480
      3472      3471      3474      3475      3472      3471      3474      3476
      3472      3471      3474      3477      3473      3471      3474      3475
      3473      3471      3474      3476      3473      3471      3474      3477
      3474      3477      3480      3481      3474      3477      3480      3482
      3474      3477      3480      3483      3475      3474      3477      3478
      3475      3474      3477      3479      3475      3474      3477      3480
      3476      3474      3477      3478      3476      3474      3477      3479
      3476      3474      3477      3480      3477      3480      3483      3484
      3477      3480      3483      3485      3477      3480      3483      3486
      3478      3477      3480      3481      3478      3477      3480      3482
      3478      3477      3480      3483      3479      3477      3480      3481
      3479      3477      3480      3482      3479      3477      3480      3483
      3480      3483      3486      3487      3480      3483      3486      3488
      3480      3483      3486      3489      3481      3480      3483      3484
      3481      3480      3483      3485      3481      3480      3483      3486
      3482      3480      3483      3484      3482      3480      3483      3485
      3482      3480      3483      3486      3484      3483      3486      3487
      3484      3483      3486      3488      3484      3483      3486      3489
      3485      3483      3486      3487      3485      3483      3486      3488
      3485      3483      3486      3489      3490      3493      3496      3497
      3490      3493      3496      3498      3490      3493      3496      3499
      3491      3490      3493      3494      3491      3490      3493      3495
      3491      3490      3493      3496      3492      3490      3493      3494
      3492      3490      3493      3495      3492      3490      3493      3496
      3493      3496      3499      3500      3493      3496      3499      3501
      3493      3496      3499      3502      3494      3493      3496      3497
      3494      3493      3496      3498      3494      3493      3496      3499
      3495      3493      3496      3497      3495      3493      3496      3498
      3495      3493      3496      3499      3496      3499      3502      3503
      3496      3499      3502      3504      3496      3499      3502      3505
      3497      3496      3499      3500      3497      3496      3499      3501
      3497      3496      3499      3502      3498      3496      3499      3500
      3498      3496      3499      3501      3498      3496      3499      3502
      3499      3502      3505      3506      3499      3502      3505      3507
      3499      3502      3505      3508      3500      3499      3502      3503
      3500      3499      3502      3504      3500      3499      3502      3505
      3501      3499      3502      3503      3501      3499      3502      3504
      3501      3499      3502      3505      3502      3505      3508      3509
      3502      3505      3508      3510      3503      3502      3505      3506
      3503      3502      3505      3507      3503      3502      3505      3508
      3504      3502      3505      3506      3504      3502      3505      3507
      3504      3502      3505      3508      3505      3508      3510      3511
      3505      3508      3510      3512      3506      3505      3508      3509
      3506      3505      3508      3510      3507      3505      3508      3509
      3507      3505      3508      3510      3508      3510      3512      3513
      3508      3510      3512      3514      3508      3510      3512      3515
      3509      3508      3510      3511      3509      3508      3510      3512
      3510      3512      3515      3516      3510      3512      3515      3517
      3510      3512      3515      3518      3511      3510      3512      3513
      3511      3510      3512      3514      3511      3510      3512      3515
      3512      3515      3518      3519      3512      3515      3518      3520
      3512      3515      3518      3521      3513      3512      3515      3516
      3513      3512      3515      3517      3513      3512      3515      3518
      3514      3512      3515      3516      3514      3512      3515      3517
      3514      3512      3515      3518      3515      3518      3521      3522
      3515      3518      3521      3523      3515      3518      3521      3524
      3516      3515      3518      3519      3516      3515      3518      3520
      3516      3515      3518      3521      3517      3515      3518      3519
      3517      3515      3518      3520      3517      3515      3518      3521
      3518      3521      3524      3525      3518      3521      3524      3526
      3518      3521      3524      3527      3519      3518      3521      3522
      3519      3518      3521      3523      3519      3518      3521      3524
      3520      3518      3521      3522      3520      3518      3521      3523
      3520      3518      3521      3524      3521      3524      3527      3528
      3521      3524      3527      3529      3521      3524      3527      3530
      3522      3521      3524      3525      3522      3521      3524      3526
      3522      3521      3524      3527      3523      3521      3524      3525
      3523      3521      3524      3526      3523      3521      3524      3527
      3524      3527      3530      3531      3524      3527      3530      3532
      3524      3527      3530      3533      3525      3524      3527      3528
      3525      3524      3527      3529      3525      3524      3527      3530
      3526      3524      3527      3528      3526      3524      3527      3529
      3526      3524      3527      3530      3527      3530      3533      3534
      3527      3530      3533      3535      3527      3530      3533      3536
      3528      3527      3530      3531      3528      3527      3530      3532
      3528      3527      3530      3533      3529      3527      3530      3531
      3529      3527      3530      3532      3529      3527      3530      3533
      3531      3530      3533      3534      3531      3530      3533      3535
      3531      3530      3533      3536      3532      3530      3533      3534
      3532      3530      3533      3535      3532      3530      3533      3536
      3537      3538      3553      3554      3537      3538      3553      3555
      3537      3538      3553      3559      3538      3537      3541      3542
      3538      3537      3541      3543      3538      3537      3541      3544
      3538      3537      3545      3546      3538      3537      3545      3547
      3538      3537      3545      3548      3538      3537      3549      3550
      3538      3537      3549      3551      3538      3537      3549      3552
      3538      3553      3559      3556      3539      3538      3537      3541
      3539      3538      3537      3545      3539      3538      3537      3549
      3539      3538      3553      3554      3539      3538      3553      3555
      3539      3538      3553      3559      3540      3538      3537      3541
      3540      3538      3537      3545      3540      3538      3537      3549
      3540      3538      3553      3554      3540      3538      3553      3555
      3540      3538      3553      3559      3541      3537      3538      3553
      3541      3537      3545      3546      3541      3537      3545      3547
      3541      3537      3545      3548      3541      3537      3549      3550
      3541      3537      3549      3551      3541      3537      3549      3552
      3542      3541      3537      3545      3542      3541      3537      3549
      3543      3541      3537      3545      3543      3541      3537      3549
      3544      3541      3537      3545      3544      3541      3537      3549
      3545      3537      3538      3553      3545      3537      3549      3550
      3545      3537      3549      3551      3545      3537      3549      3552
      3546      3545      3537      3549      3547      3545      3537      3549
      3548      3545      3537      3549      3549      3537      3538      3553
      3553      3559      3556      3557      3553      3559      3556      3558
      3553      3559      3556      3560      3554      3553      3559      3556
      3555      3553      3559      3556      3556      3560      3561      3562
      3556      3560      3561      3563      3556      3560      3561      3564
      3557      3556      3560      3561      3558      3556      3560      3561
      3559      3556      3560      3561      3560      3561      3564      3565
      3560      3561      3564      3566      3560      3561      3564      3572
      3561      3564      3566      3567      3561      3564      3572      3573
      3561      3564      3572      3574      3561      3564      3572      3575
      3562      3561      3564      3565      3562      3561      3564      3566
      3562      3561      3564      3572      3563      3561      3564      3565
      3563      3561      3564      3566      3563      3561      3564      3572
      3564      3566      3567      3568      3564      3566      3567      3569
      3564      3572      3575      3576      3565      3564      3566      3567
      3565      3564      3572      3573      3565      3564      3572      3574
      3565      3564      3572      3575      3566      3564      3572      3573
      3566      3564      3572      3574      3566      3564      3572      3575
      3566      3567      3569      3570      3566      3567      3569      3571
      3566      3567      3569      3581      3567      3566      3564      3572
      3567      3569      3581      3582      3567      3569      3581      3583
      3567      3569      3581      3584      3568      3567      3569      3570
      3568      3567      3569      3571      3568      3567      3569      3581
      3569      3581      3584      3585      3569      3581      3584      3586
      3569      3581      3584      3587      3570      3569      3581      3582
      3570      3569      3581      3583      3570      3569      3581      3584
      3571      3569      3581      3582      3571      3569      3581      3583
      3571      3569      3581      3584      3572      3575      3576      3577
      3572      3575      3576      3578      3573      3572      3575      3576
      3574      3572      3575      3576      3575      3576      3578      3579
      3575      3576      3578      3580      3575      3576      3578      3628
      3576      3578      3628      3629      3576      3578      3628      3630
      3576      3578      3628      3631      3577      3576      3578      3579
      3577      3576      3578      3580      3577      3576      3578      3628
      3578      3628      3631      3632      3578      3628      3631      3633
      3578      3628      3631      3634      3579      3578      3628      3629
      3579      3578      3628      3630      3579      3578      3628      3631
      3580      3578      3628      3629      3580      3578      3628      3630
      3580      3578      3628      3631      3581      3584      3587      3588
      3581      3584      3587      3589      3581      3584      3587      3590
      3582      3581      3584      3585      3582      3581      3584      3586
      3582      3581      3584      3587      3583      3581      3584      3585
      3583      3581      3584      3586      3583      3581      3584      3587
      3584      3587      3590      3591      3584      3587      3590      3592
      3584      3587      3590      3593      3585      3584      3587      3588
      3585      3584      3587      3589      3585      3584      3587      3590
      3586      3584      3587      3588      3586      3584      3587      3589
      3586      3584      3587      3590      3587      3590      3593      3594
      3587      3590      3593      3595      3587      3590      3593      3596
      3588      3587      3590      3591      3588      3587      3590      3592
      3588      3587      3590      3593      3589      3587      3590      3591
      3589      3587      3590      3592      3589      3587      3590      3593
      3590      3593      3596      3597      3590      3593      3596      3598
      3590      3593      3596      3599      3591      3590      3593      3594
      3591      3590      3593      3595      3591      3590      3593      3596
      3592      3590      3593      3594      3592      3590      3593      3595
      3592      3590      3593      3596      3593      3596      3599      3600
      3593      3596      3599      3601      3594      3593      3596      3597
      3594      3593      3596      3598      3594      3593      3596      3599
      3595      3593      3596      3597      3595      3593      3596      3598
      3595      3593      3596      3599      3596      3599      3601      3602
      3596      3599      3601      3603      3597      3596      3599      3600
      3597      3596      3599      3601      3598      3596      3599      3600
      3598      3596      3599      3601      3599      3601      3603      3604
      3599      3601      3603      3605      3599      3601      3603      3606
      3600      3599      3601      3602      3600      3599      3601      3603
      3601      3603      3606      3607      3601      3603      3606      3608
      3601      3603      3606      3609      3602      3601      3603      3604
      3602      3601      3603      3605      3602      3601      3603      3606
      3603      3606      3609      3610      3603      3606      3609      3611
      3603      3606      3609      3612      3604      3603      3606      3607
      3604      3603      3606      3608      3604      3603      3606      3609
      3605      3603      3606      3607      3605      3603      3606      3608
      3605      3603      3606      3609      3606      3609      3612      3613
      3606      3609      3612      3614      3606      3609      3612      3615
      3607      3606      3609      3610      3607      3606      3609      3611
      3607      3606      3609      3612      3608      3606      3609      3610
      3608      3606      3609      3611      3608      3606      3609      3612
      3609      3612      3615      3616      3609      3612      3615      3617
      3609      3612      3615      3618      3610      3609      3612      3613
      3610      3609      3612      3614      3610      3609      3612      3615
      3611      3609      3612      3613      3611      3609      3612      3614
      3611      3609      3612      3615      3612      3615      3618      3619
      3612      3615      3618      3620      3612      3615      3618      3621
      3613      3612      3615      3616      3613      3612      3615      3617
      3613      3612      3615      3618      3614      3612      3615      3616
      3614      3612      3615      3617      3614      3612      3615      3618
      3615      3618      3621      3622      3615      3618      3621      3623
      3615      3618      3621      3624      3616      3615      3618      3619
      3616      3615      3618      3620      3616      3615      3618      3621
      3617      3615      3618      3619      3617      3615      3618      3620
      3617      3615      3618      3621      3618      3621      3624      3625
      3618      3621      3624      3626      3618      3621      3624      3627
      3619      3618      3621      3622      3619      3618      3621      3623
      3619      3618      3621      3624      3620      3618      3621      3622
      3620      3618      3621      3623      3620      3618      3621      3624
      3622      3621      3624      3625      3622      3621      3624      3626
      3622      3621      3624      3627      3623      3621      3624      3625
      3623      3621      3624      3626      3623      3621      3624      3627
      3628      3631      3634      3635      3628      3631      3634      3636
      3628      3631      3634      3637      3629      3628      3631      3632
      3629      3628      3631      3633      3629      3628      3631      3634
      3630      3628      3631      3632      3630      3628      3631      3633
      3630      3628      3631      3634      3631      3634      3637      3638
      3631      3634      3637      3639      3631      3634      3637      3640
      3632      3631      3634      3635      3632      3631      3634      3636
      3632      3631      3634      3637      3633      3631      3634      3635
      3633      3631      3634      3636      3633      3631      3634      3637
      3634      3637      3640      3641      3634      3637      3640      3642
      3634      3637      3640      3643      3635      3634      3637      3638
      3635      3634      3637      3639      3635      3634      3637      3640
      3636      3634      3637      3638      3636      3634      3637      3639
      3636      3634      3637      3640      3637      3640      3643      3644
      3637      3640      3643      3645      3637      3640      3643      3646
      3638      3637      3640      3641      3638      3637      3640      3642
      3638      3637      3640      3643      3639      3637      3640      3641
      3639      3637      3640      3642      3639      3637      3640      3643
      3640      3643      3646      3647      3640      3643      3646      3648
      3641      3640      3643      3644      3641      3640      3643      3645
      3641      3640      3643      3646      3642      3640      3643      3644
      3642      3640      3643      3645      3642      3640      3643      3646
      3643      3646      3648      3649      3643      3646      3648      3650
      3644      3643      3646      3647      3644      3643      3646      3648
      3645      3643      3646      3647      3645      3643      3646      3648
      3646      3648      3650      3651      3646      3648      3650      3652
      3646      3648      3650      3653      3647      3646      3648      3649
      3647      3646      3648      3650      3648      3650      3653      3654
      3648      3650      3653      3655      3648      3650      3653      3656
      3649      3648      3650      3651      3649      3648      3650      3652
      3649      3648      3650      3653      3650      3653      3656      3657
      3650      3653      3656      3658      3650      3653      3656      3659
      3651      3650      3653      3654      3651      3650      3653      3655
      3651      3650      3653      3656      3652      3650      3653      3654
      3652      3650      3653      3655      3652      3650      3653      3656
      3653      3656      3659      3660      3653      3656      3659      3661
      3653      3656      3659      3662      3654      3653      3656      3657
      3654      3653      3656      3658      3654      3653      3656      3659
      3655      3653      3656      3657      3655      3653      3656      3658
      3655      3653      3656      3659      3656      3659      3662      3663
      3656      3659      3662      3664      3656      3659      3662      3665
      3657      3656      3659      3660      3657      3656      3659      3661
      3657      3656      3659      3662      3658      3656      3659      3660
      3658      3656      3659      3661      3658      3656      3659      3662
      3659      3662      3665      3666      3659      3662      3665      3667
      3659      3662      3665      3668      3660      3659      3662      3663
      3660      3659      3662      3664      3660      3659      3662      3665
      3661      3659      3662      3663      3661      3659      3662      3664
      3661      3659      3662      3665      3662      3665      3668      3669
      3662      3665      3668      3670      3662      3665      3668      3671
      3663      3662      3665      3666      3663      3662      3665      3667
      3663      3662      3665      3668      3664      3662      3665      3666
      3664      3662      3665      3667      3664      3662      3665      3668
      3665      3668      3671      3672      3665      3668      3671      3673
      3665      3668      3671      3674      3666      3665      3668      3669
      3666      3665      3668      3670      3666      3665      3668      3671
      3667      3665      3668      3669      3667      3665      3668      3670
      3667      3665      3668      3671      3669      3668      3671      3672
      3669      3668      3671      3673      3669      3668      3671      3674
      3670      3668      3671      3672      3670      3668      3671      3673
      3670      3668      3671      3674      3675      3676      3691      3692
      3675      3676      3691      3693      3675      3676      3691      3697
      3676      3675      3679      3680      3676      3675      3679      3681
      3676      3675      3679      3682      3676      3675      3683      3684
      3676      3675      3683      3685      3676      3675      3683      3686
      3676      3675      3687      3688      3676      3675      3687      3689
      3676      3675      3687      3690      3676      3691      3697      3694
      3677      3676      3675      3679      3677      3676      3675      3683
      3677      3676      3675      3687      3677      3676      3691      3692
      3677      3676      3691      3693      3677      3676      3691      3697
      3678      3676      3675      3679      3678      3676      3675      3683
      3678      3676      3675      3687      3678      3676      3691      3692
      3678      3676      3691      3693      3678      3676      3691      3697
      3679      3675      3676      3691      3679      3675      3683      3684
      3679      3675      3683      3685      3679      3675      3683      3686
      3679      3675      3687      3688      3679      3675      3687      3689
      3679      3675      3687      3690      3680      3679      3675      3683
      3680      3679      3675      3687      3681      3679      3675      3683
      3681      3679      3675      3687      3682      3679      3675      3683
      3682      3679      3675      3687      3683      3675      3676      3691
      3683      3675      3687      3688      3683      3675      3687      3689
      3683      3675      3687      3690      3684      3683      3675      3687
      3685      3683      3675      3687      3686      3683      3675      3687
      3687      3675      3676      3691      3691      3697      3694      3695
      3691      3697      3694      3696      3691      3697      3694      3698
      3692      3691      3697      3694      3693      3691      3697      3694
      3694      3698      3699      3700      3694      3698      3699      3701
      3694      3698      3699      3702      3695      3694      3698      3699
      3696      3694      3698      3699      3697      3694      3698      3699
      3698      3699      3702      3703      3698      3699      3702      3704
      3698      3699      3702      3710      3699      3702      3704      3705
      3699      3702      3710      3711      3699      3702      3710      3712
      3699      3702      3710      3713      3700      3699      3702      3703
      3700      3699      3702      3704      3700      3699      3702      3710
      3701      3699      3702      3703      3701      3699      3702      3704
      3701      3699      3702      3710      3702      3704      3705      3706
      3702      3704      3705      3707      3702      3710      3713      3714
      3703      3702      3704      3705      3703      3702      3710      3711
      3703      3702      3710      3712      3703      3702      3710      3713
      3704      3702      3710      3711      3704      3702      3710      3712
      3704      3702      3710      3713      3704      3705      3707      3708
      3704      3705      3707      3709      3704      3705      3707      3719
      3705      3704      3702      3710      3705      3707      3719      3720
      3705      3707      3719      3721      3705      3707      3719      3722
      3706      3705      3707      3708      3706      3705      3707      3709
      3706      3705      3707      3719      3707      3719      3722      3723
      3707      3719      3722      3724      3707      3719      3722      3725
      3708      3707      3719      3720      3708      3707      3719      3721
      3708      3707      3719      3722      3709      3707      3719      3720
      3709      3707      3719      3721      3709      3707      3719      3722
      3710      3713      3714      3715      3710      3713      3714      3716
      3711      3710      3713      3714      3712      3710      3713      3714
      3713      3714      3716      3717      3713      3714      3716      3718
      3713      3714      3716      3766      3714      3716      3766      3767
      3714      3716      3766      3768      3714      3716      3766      3769
      3715      3714      3716      3717      3715      3714      3716      3718
      3715      3714      3716      3766      3716      3766      3769      3770
      3716      3766      3769      3771      3716      3766      3769      3772
      3717      3716      3766      3767      3717      3716      3766      3768
      3717      3716      3766      3769      3718      3716      3766      3767
      3718      3716      3766      3768      3718      3716      3766      3769
      3719      3722      3725      3726      3719      3722      3725      3727
      3719      3722      3725      3728      3720      3719      3722      3723
      3720      3719      3722      3724      3720      3719      3722      3725
      3721      3719      3722      3723      3721      3719      3722      3724
      3721      3719      3722      3725      3722      3725      3728      3729
      3722      3725      3728      3730      3722      3725      3728      3731
      3723      3722      3725      3726      3723      3722      3725      3727
      3723      3722      3725      3728      3724      3722      3725      3726
      3724      3722      3725      3727      3724      3722      3725      3728
      3725      3728      3731      3732      3725      3728      3731      3733
      3725      3728      3731      3734      3726      3725      3728      3729
      3726      3725      3728      3730      3726      3725      3728      3731
      3727      3725      3728      3729      3727      3725      3728      3730
      3727      3725      3728      3731      3728      3731      3734      3735
      3728      3731      3734      3736      3728      3731      3734      3737
      3729      3728      3731      3732      3729      3728      3731      3733
      3729      3728      3731      3734      3730      3728      3731      3732
      3730      3728      3731      3733      3730      3728      3731      3734
      3731      3734      3737      3738      3731      3734      3737      3739
      3732      3731      3734      3735      3732      3731      3734      3736
      3732      3731      3734      3737      3733      3731      3734      3735
      3733      3731      3734      3736      3733      3731      3734      3737
      3734      3737      3739      3740      3734      3737      3739      3741
      3735      3734      3737      3738      3735      3734      3737      3739
      3736      3734      3737      3738      3736      3734      3737      3739
      3737      3739      3741      3742      3737      3739      3741      3743
      3737      3739      3741      3744      3738      3737      3739      3740
      3738      3737      3739      3741      3739      3741      3744      3745
      3739      3741      3744      3746      3739      3741      3744      3747
      3740      3739      3741      3742      3740      3739      3741      3743
      3740      3739      3741      3744      3741      3744      3747      3748
      3741      3744      3747      3749      3741      3744      3747      3750
      3742      3741      3744      3745      3742      3741      3744      3746
      3742      3741      3744      3747      3743      3741      3744      3745
      3743      3741      3744      3746      3743      3741      3744      3747
      3744      3747      3750      3751      3744      3747      3750      3752
      3744      3747      3750      3753      3745      3744      3747      3748
      3745      3744      3747      3749      3745      3744      3747      3750
      3746      3744      3747      3748      3746      3744      3747      3749
      3746      3744      3747      3750      3747      3750      3753      3754
      3747      3750      3753      3755      3747      3750      3753      3756
      3748      3747      3750      3751      3748      3747      3750      3752
      3748      3747      3750      3753      3749      3747      3750      3751
      3749      3747      3750      3752      3749      3747      3750      3753
      3750      3753      3756      3757      3750      3753      3756      3758
      3750      3753      3756      3759      3751      3750      3753      3754
      3751      3750      3753      3755      3751      3750      3753      3756
      3752      3750      3753      3754      3752      3750      3753      3755
      3752      3750      3753      3756      3753      3756      3759      3760
      3753      3756      3759      3761      3753      3756      3759      3762
      3754      3753      3756      3757      3754      3753      3756      3758
      3754      3753      3756      3759      3755      3753      3756      3757
      3755      3753      3756      3758      3755      3753      3756      3759
      3756      3759      3762      3763      3756      3759      3762      3764
      3756      3759      3762      3765      3757      3756      3759      3760
      3757      3756      3759      3761      3757      3756      3759      3762
      3758      3756      3759      3760      3758      3756      3759      3761
      3758      3756      3759      3762      3760      3759      3762      3763
      3760      3759      3762      3764      3760      3759      3762      3765
      3761      3759      3762      3763      3761      3759      3762      3764
      3761      3759      3762      3765      3766      3769      3772      3773
      3766      3769      3772      3774      3766      3769      3772      3775
      3767      3766      3769      3770      3767      3766      3769      3771
      3767      3766      3769      3772      3768      3766      3769      3770
      3768      3766      3769      3771      3768      3766      3769      3772
      3769      3772      3775      3776      3769      3772      3775      3777
      3769      3772      3775      3778      3770      3769      3772      3773
      3770      3769      3772      3774      3770      3769      3772      3775
      3771      3769      3772      3773      3771      3769      3772      3774
      3771      3769      3772      3775      3772      3775      3778      3779
      3772      3775      3778      3780      3772      3775      3778      3781
      3773      3772      3775      3776      3773      3772      3775      3777
      3773      3772      3775      3778      3774      3772      3775      3776
      3774      3772      3775      3777      3774      3772      3775      3778
      3775      3778      3781      3782      3775      3778      3781      3783
      3775      3778      3781      3784      3776      3775      3778      3779
      3776      3775      3778      3780      3776      3775      3778      3781
      3777      3775      3778      3779      3777      3775      3778      3780
      3777      3775      3778      3781      3778      3781      3784      3785
      3778      3781      3784      3786      3779      3778      3781      3782
      3779      3778      3781      3783      3779      3778      3781      3784
      3780      3778      3781      3782      3780      3778      3781      3783
      3780      3778      3781      3784      3781      3784      3786      3787
      3781      3784      3786      3788      3782      3781      3784      3785
      3782      3781      3784      3786      3783      3781      3784      3785
      3783      3781      3784      3786      3784      3786      3788      3789
      3784      3786      3788      3790      3784      3786      3788      3791
      3785      3784      3786      3787      3785      3784      3786      3788
      3786      3788      3791      3792      3786      3788      3791      3793
      3786      3788      3791      3794      3787      3786      3788      3789
      3787      3786      3788      3790      3787      3786      3788      3791
      3788      3791      3794      3795      3788      3791      3794      3796
      3788      3791      3794      3797      3789      3788      3791      3792
      3789      3788      3791      3793      3789      3788      3791      3794
      3790      3788      3791      3792      3790      3788      3791      3793
      3790      3788      3791      3794      3791      3794      3797      3798
      3791      3794      3797      3799      3791      3794      3797      3800
      3792      3791      3794      3795      3792      3791      3794      3796
      3792      3791      3794      3797      3793      3791      3794      3795
      3793      3791      3794      3796      3793      3791      3794      3797
      3794      3797      3800      3801      3794      3797      3800      3802
      3794      3797      3800      3803      3795      3794      3797      3798
      3795      3794      3797      3799      3795      3794      3797      3800
      3796      3794      3797      3798      3796      3794      3797      3799
      3796      3794      3797      3800      3797      3800      3803      3804
      3797      3800      3803      3805      3797      3800      3803      3806
      3798      3797      3800      3801      3798      3797      3800      3802
      3798      3797      3800      3803      3799      3797      3800      3801
      3799      3797      3800      3802      3799      3797      3800      3803
      3800      3803      3806      3807      3800      3803      3806      3808
      3800      3803      3806      3809      3801      3800      3803      3804
      3801      3800      3803      3805      3801      3800      3803      3806
      3802      3800      3803      3804      3802      3800      3803      3805
      3802      3800      3803      3806      3803      3806      3809      3810
      3803      3806      3809      3811      3803      3806      3809      3812
      3804      3803      3806      3807      3804      3803      3806      3808
      3804      3803      3806      3809      3805      3803      3806      3807
      3805      3803      3806      3808      3805      3803      3806      3809
      3807      3806      3809      3810      3807      3806      3809      3811
      3807      3806      3809      3812      3808      3806      3809      3810
      3808      3806      3809      3811      3808      3806      3809      3812
      3813      3814      3829      3830      3813      3814      3829      3831
      3813      3814      3829      3835      3814      3813      3817      3818
      3814      3813      3817      3819      3814      3813      3817      3820
      3814      3813      3821      3822      3814      3813      3821      3823
      3814      3813      3821      3824      3814      3813      3825      3826
      3814      3813      3825      3827      3814      3813      3825      3828
      3814      3829      3835      3832      3815      3814      3813      3817
      3815      3814      3813      3821      3815      3814      3813      3825
      3815      3814      3829      3830      3815      3814      3829      3831
      3815      3814      3829      3835      3816      3814      3813      3817
      3816      3814      3813      3821      3816      3814      3813      3825
      3816      3814      3829      3830      3816      3814      3829      3831
      3816      3814      3829      3835      3817      3813      3814      3829
      3817      3813      3821      3822      3817      3813      3821      3823
      3817      3813      3821      3824      3817      3813      3825      3826
      3817      3813      3825      3827      3817      3813      3825      3828
      3818      3817      3813      3821      3818      3817      3813      3825
      3819      3817      3813      3821      3819      3817      3813      3825
      3820      3817      3813      3821      3820      3817      3813      3825
      3821      3813      3814      3829      3821      3813      3825      3826
      3821      3813      3825      3827      3821      3813      3825      3828
      3822      3821      3813      3825      3823      3821      3813      3825
      3824      3821      3813      3825      3825      3813      3814      3829
      3829      3835      3832      3833      3829      3835      3832      3834
      3829      3835      3832      3836      3830      3829      3835      3832
      3831      3829      3835      3832      3832      3836      3837      3838
      3832      3836      3837      3839      3832      3836      3837      3840
      3833      3832      3836      3837      3834      3832      3836      3837
      3835      3832      3836      3837      3836      3837      3840      3841
      3836      3837      3840      3842      3836      3837      3840      3848
      3837      3840      3842      3843      3837      3840      3848      3849
      3837      3840      3848      3850      3837      3840      3848      3851
      3838      3837      3840      3841      3838      3837      3840      3842
      3838      3837      3840      3848      3839      3837      3840      3841
      3839      3837      3840      3842      3839      3837      3840      3848
      3840      3842      3843      3844      3840      3842      3843      3845
      3840      3848      3851      3852      3841      3840      3842      3843
      3841      3840      3848      3849      3841      3840      3848      3850
      3841      3840      3848      3851      3842      3840      3848      3849
      3842      3840      3848      3850      3842      3840      3848      3851
      3842      3843      3845      3846      3842      3843      3845      3847
      3842      3843      3845      3857      3843      3842      3840      3848
      3843      3845      3857      3858      3843      3845      3857      3859
      3843      3845      3857      3860      3844      3843      3845      3846
      3844      3843      3845      3847      3844      3843      3845      3857
      3845      3857      3860      3861      3845      3857      3860      3862
      3845      3857      3860      3863      3846      3845      3857      3858
      3846      3845      3857      3859      3846      3845      3857      3860
      3847      3845      3857      3858      3847      3845      3857      3859
      3847      3845      3857      3860      3848      3851      3852      3853
      3848      3851      3852      3854      3849      3848      3851      3852
      3850      3848      3851      3852      3851      3852      3854      3855
      3851      3852      3854      3856      3851      3852      3854      3904
      3852      3854      3904      3905      3852      3854      3904      3906
      3852      3854      3904      3907      3853      3852      3854      3855
      3853      3852      3854      3856      3853      3852      3854      3904
      3854      3904      3907      3908      3854      3904      3907      3909
      3854      3904      3907      3910      3855      3854      3904      3905
      3855      3854      3904      3906      3855      3854      3904      3907
      3856      3854      3904      3905      3856      3854      3904      3906
      3856      3854      3904      3907      3857      3860      3863      3864
      3857      3860      3863      3865      3857      3860      3863      3866
      3858      3857      3860      3861      3858      3857      3860      3862
      3858      3857      3860      3863      3859      3857      3860      3861
      3859      3857      3860      3862      3859      3857      3860      3863
      3860      3863      3866      3867      3860      3863      3866      3868
      3860      3863      3866      3869      3861      3860      3863      3864
      3861      3860      3863      3865      3861      3860      3863      3866
      3862      3860      3863      3864      3862      3860      3863      3865
      3862      3860      3863      3866      3863      3866      3869      3870
      3863      3866      3869      3871      3863      3866      3869      3872
      3864      3863      3866      3867      3864      3863      3866      3868
      3864      3863      3866      3869      3865      3863      3866      3867
      3865      3863      3866      3868      3865      3863      3866      3869
      3866      3869      3872      3873      3866      3869      3872      3874
      3866      3869      3872      3875      3867      3866      3869      3870
      3867      3866      3869      3871      3867      3866      3869      3872
      3868      3866      3869      3870      3868      3866      3869      3871
      3868      3866      3869      3872      3869      3872      3875      3876
      3869      3872      3875      3877      3870      3869      3872      3873
      3870      3869      3872      3874      3870      3869      3872      3875
      3871      3869      3872      3873      3871      3869      3872      3874
      3871      3869      3872      3875      3872      3875      3877      3878
      3872      3875      3877      3879      3873      3872      3875      3876
      3873      3872      3875      3877      3874      3872      3875      3876
      3874      3872      3875      3877      3875      3877      3879      3880
      3875      3877      3879      3881      3875      3877      3879      3882
      3876      3875      3877      3878      3876      3875      3877      3879
      3877      3879      3882      3883      3877      3879      3882      3884
      3877      3879      3882      3885      3878      3877      3879      3880
      3878      3877      3879      3881      3878      3877      3879      3882
      3879      3882      3885      3886      3879      3882      3885      3887
      3879      3882      3885      3888      3880      3879      3882      3883
      3880      3879      3882      3884      3880      3879      3882      3885
      3881      3879      3882      3883      3881      3879      3882      3884
      3881      3879      3882      3885      3882      3885      3888      3889
      3882      3885      3888      3890      3882      3885      3888      3891
      3883      3882      3885      3886      3883      3882      3885      3887
      3883      3882      3885      3888      3884      3882      3885      3886
      3884      3882      3885      3887      3884      3882      3885      3888
      3885      3888      3891      3892      3885      3888      3891      3893
      3885      3888      3891      3894      3886      3885      3888      3889
      3886      3885      3888      3890      3886      3885      3888      3891
      3887      3885      3888      3889      3887      3885      3888      3890
      3887      3885      3888      3891      3888      3891      3894      3895
      3888      3891      3894      3896      3888      3891      3894      3897
      3889      3888      3891      3892      3889      3888      3891      3893
      3889      3888      3891      3894      3890      3888      3891      3892
      3890      3888      3891      3893      3890      3888      3891      3894
      3891      3894      3897      3898      3891      3894      3897      3899
      3891      3894      3897      3900      3892      3891      3894      3895
      3892      3891      3894      3896      3892      3891      3894      3897
      3893      3891      3894      3895      3893      3891      3894      3896
      3893      3891      3894      3897      3894      3897      3900      3901
      3894      3897      3900      3902      3894      3897      3900      3903
      3895      3894      3897      3898      3895      3894      3897      3899
      3895      3894      3897      3900      3896      3894      3897      3898
      3896      3894      3897      3899      3896      3894      3897      3900
      3898      3897      3900      3901      3898      3897      3900      3902
      3898      3897      3900      3903      3899      3897      3900      3901
      3899      3897      3900      3902      3899      3897      3900      3903
      3904      3907      3910      3911      3904      3907      3910      3912
      3904      3907      3910      3913      3905      3904      3907      3908
      3905      3904      3907      3909      3905      3904      3907      3910
      3906      3904      3907      3908      3906      3904      3907      3909
      3906      3904      3907      3910      3907      3910      3913      3914
      3907      3910      3913      3915      3907      3910      3913      3916
      3908      3907      3910      3911      3908      3907      3910      3912
      3908      3907      3910      3913      3909      3907      3910      3911
      3909      3907      3910      3912      3909      3907      3910      3913
      3910      3913      3916      3917      3910      3913      3916      3918
      3910      3913      3916      3919      3911      3910      3913      3914
      3911      3910      3913      3915      3911      3910      3913      3916
      3912      3910      3913      3914      3912      3910      3913      3915
      3912      3910      3913      3916      3913      3916      3919      3920
      3913      3916      3919      3921      3913      3916      3919      3922
      3914      3913      3916      3917      3914      3913      3916      3918
      3914      3913      3916      3919      3915      3913      3916      3917
      3915      3913      3916      3918      3915      3913      3916      3919
      3916      3919      3922      3923      3916      3919      3922      3924
      3917      3916      3919      3920      3917      3916      3919      3921
      3917      3916      3919      3922      3918      3916      3919      3920
      3918      3916      3919      3921      3918      3916      3919      3922
      3919      3922      3924      3925      3919      3922      3924      3926
      3920      3919      3922      3923      3920      3919      3922      3924
      3921      3919      3922      3923      3921      3919      3922      3924
      3922      3924      3926      3927      3922      3924      3926      3928
      3922      3924      3926      3929      3923      3922      3924      3925
      3923      3922      3924      3926      3924      3926      3929      3930
      3924      3926      3929      3931      3924      3926      3929      3932
      3925      3924      3926      3927      3925      3924      3926      3928
      3925      3924      3926      3929      3926      3929      3932      3933
      3926      3929      3932      3934      3926      3929      3932      3935
      3927      3926      3929      3930      3927      3926      3929      3931
      3927      3926      3929      3932      3928      3926      3929      3930
      3928      3926      3929      3931      3928      3926      3929      3932
      3929      3932      3935      3936      3929      3932      3935      3937
      3929      3932      3935      3938      3930      3929      3932      3933
      3930      3929      3932      3934      3930      3929      3932      3935
      3931      3929      3932      3933      3931      3929      3932      3934
      3931      3929      3932      3935      3932      3935      3938      3939
      3932      3935      3938      3940      3932      3935      3938      3941
      3933      3932      3935      3936      3933      3932      3935      3937
      3933      3932      3935      3938      3934      3932      3935      3936
      3934      3932      3935      3937      3934      3932      3935      3938
      3935      3938      3941      3942      3935      3938      3941      3943
      3935      3938      3941      3944      3936      3935      3938      3939
      3936      3935      3938      3940      3936      3935      3938      3941
      3937      3935      3938      3939      3937      3935      3938      3940
      3937      3935      3938      3941      3938      3941      3944      3945
      3938      3941      3944      3946      3938      3941      3944      3947
      3939      3938      3941      3942      3939      3938      3941      3943
      3939      3938      3941      3944      3940      3938      3941      3942
      3940      3938      3941      3943      3940      3938      3941      3944
      3941      3944      3947      3948      3941      3944      3947      3949
      3941      3944      3947      3950      3942      3941      3944      3945
      3942      3941      3944      3946      3942      3941      3944      3947
      3943      3941      3944      3945      3943      3941      3944      3946
      3943      3941      3944      3947      3945      3944      3947      3948
      3945      3944      3947      3949      3945      3944      3947      3950
      3946      3944      3947      3948      3946      3944      3947      3949
      3946      3944      3947      3950      3951      3952      3967      3968
      3951      3952      3967      3969      3951      3952      3967      3973
      3952      3951      3955      3956      3952      3951      3955      3957
      3952      3951      3955      3958      3952      3951      3959      3960
      3952      3951      3959      3961      3952      3951      3959      3962
      3952      3951      3963      3964      3952      3951      3963      3965
      3952      3951      3963      3966      3952      3967      3973      3970
      3953      3952      3951      3955      3953      3952      3951      3959
      3953      3952      3951      3963      3953      3952      3967      3968
      3953      3952      3967      3969      3953      3952      3967      3973
      3954      3952      3951      3955      3954      3952      3951      3959
      3954      3952      3951      3963      3954      3952      3967      3968
      3954      3952      3967      3969      3954      3952      3967      3973
      3955      3951      3952      3967      3955      3951      3959      3960
      3955      3951      3959      3961      3955      3951      3959      3962
      3955      3951      3963      3964      3955      3951      3963      3965
      3955      3951      3963      3966      3956      3955      3951      3959
      3956      3955      3951      3963      3957      3955      3951      3959
      3957      3955      3951      3963      3958      3955      3951      3959
      3958      3955      3951      3963      3959      3951      3952      3967
      3959      3951      3963      3964      3959      3951      3963      3965
      3959      3951      3963      3966      3960      3959      3951      3963
      3961      3959      3951      3963      3962      3959      3951      3963
      3963      3951      3952      3967      3967      3973      3970      3971
      3967      3973      3970      3972      3967      3973      3970      3974
      3968      3967      3973      3970      3969      3967      3973      3970
      3970      3974      3975      3976      3970      3974      3975      3977
      3970      3974      3975      3978      3971      3970      3974      3975
      3972      3970      3974      3975      3973      3970      3974      3975
      3974      3975      3978      3979      3974      3975      3978      3980
      3974      3975      3978      3986      3975      3978      3980      3981
      3975      3978      3986      3987      3975      3978      3986      3988
      3975      3978      3986      3989      3976      3975      3978      3979
      3976      3975      3978      3980      3976      3975      3978      3986
      3977      3975      3978      3979      3977      3975      3978      3980
      3977      3975      3978      3986      3978      3980      3981      3982
      3978      3980      3981      3983      3978      3986      3989      3990
      3979      3978      3980      3981      3979      3978      3986      3987
      3979      3978      3986      3988      3979      3978      3986      3989
      3980      3978      3986      3987      3980      3978      3986      3988
      3980      3978      3986      3989      3980      3981      3983      3984
      3980      3981      3983      3985      3980      3981      3983      3995
      3981      3980      3978      3986      3981      3983      3995      3996
      3981      3983      3995      3997      3981      3983      3995      3998
      3982      3981      3983      3984      3982      3981      3983      3985
      3982      3981      3983      3995      3983      3995      3998      3999
      3983      3995      3998      4000      3983      3995      3998      4001
      3984      3983      3995      3996      3984      3983      3995      3997
      3984      3983      3995      3998      3985      3983      3995      3996
      3985      3983      3995      3997      3985      3983      3995      3998
      3986      3989      3990      3991      3986      3989      3990      3992
      3987      3986      3989      3990      3988      3986      3989      3990
      3989      3990      3992      3993      3989      3990      3992      3994
      3989      3990      3992      4042      3990      3992      4042      4043
      3990      3992      4042      4044      3990      3992      4042      4045
      3991      3990      3992      3993      3991      3990      3992      3994
      3991      3990      3992      4042      3992      4042      4045      4046
      3992      4042      4045      4047      3992      4042      4045      4048
      3993      3992      4042      4043      3993      3992      4042      4044
      3993      3992      4042      4045      3994      3992      4042      4043
      3994      3992      4042      4044      3994      3992      4042      4045
      3995      3998      4001      4002      3995      3998      4001      4003
      3995      3998      4001      4004      3996      3995      3998      3999
      3996      3995      3998      4000      3996      3995      3998      4001
      3997      3995      3998      3999      3997      3995      3998      4000
      3997      3995      3998      4001      3998      4001      4004      4005
      3998      4001      4004      4006      3998      4001      4004      4007
      3999      3998      4001      4002      3999      3998      4001      4003
      3999      3998      4001      4004      4000      3998      4001      4002
      4000      3998      4001      4003      4000      3998      4001      4004
      4001      4004      4007      4008      4001      4004      4007      4009
      4001      4004      4007      4010      4002      4001      4004      4005
      4002      4001      4004      4006      4002      4001      4004      4007
      4003      4001      4004      4005      4003      4001      4004      4006
      4003      4001      4004      4007      4004      4007      4010      4011
      4004      4007      4010      4012      4004      4007      4010      4013
      4005      4004      4007      4008      4005      4004      4007      4009
      4005      4004      4007      4010      4006      4004      4007      4008
      4006      4004      4007      4009      4006      4004      4007      4010
      4007      4010      4013      4014      4007      4010      4013      4015
      4008      4007      4010      4011      4008      4007      4010      4012
      4008      4007      4010      4013      4009      4007      4010      4011
      4009      4007      4010      4012      4009      4007      4010      4013
      4010      4013      4015      4016      4010      4013      4015      4017
      4011      4010      4013      4014      4011      4010      4013      4015
      4012      4010      4013      4014      4012      4010      4013      4015
      4013      4015      4017      4018      4013      4015      4017      4019
      4013      4015      4017      4020      4014      4013      4015      4016
      4014      4013      4015      4017      4015      4017      4020      4021
      4015      4017      4020      4022      4015      4017      4020      4023
      4016      4015      4017      4018      4016      4015      4017      4019
      4016      4015      4017      4020      4017      4020      4023      4024
      4017      4020      4023      4025      4017      4020      4023      4026
      4018      4017      4020      4021      4018      4017      4020      4022
      4018      4017      4020      4023      4019      4017      4020      4021
      4019      4017      4020      4022      4019      4017      4020      4023
      4020      4023      4026      4027      4020      4023      4026      4028
      4020      4023      4026      4029      4021      4020      4023      4024
      4021      4020      4023      4025      4021      4020      4023      4026
      4022      4020      4023      4024      4022      4020      4023      4025
      4022      4020      4023      4026      4023      4026      4029      4030
      4023      4026      4029      4031      4023      4026      4029      4032
      4024      4023      4026      4027      4024      4023      4026      4028
      4024      4023      4026      4029      4025      4023      4026      4027
      4025      4023      4026      4028      4025      4023      4026      4029
      4026      4029      4032      4033      4026      4029      4032      4034
      4026      4029      4032      4035      4027      4026      4029      4030
      4027      4026      4029      4031      4027      4026      4029      4032
      4028      4026      4029      4030      4028      4026      4029      4031
      4028      4026      4029      4032      4029      4032      4035      4036
      4029      4032      4035      4037      4029      4032      4035      4038
      4030      4029      4032      4033      4030      4029      4032      4034
      4030      4029      4032      4035      4031      4029      4032      4033
      4031      4029      4032      4034      4031      4029      4032      4035
      4032      4035      4038      4039      4032      4035      4038      4040
      4032      4035      4038      4041      4033      4032      4035      4036
      4033      4032      4035      4037      4033      4032      4035      4038
      4034      4032      4035      4036      4034      4032      4035      4037
      4034      4032      4035      4038      4036      4035      4038      4039
      4036      4035      4038      4040      4036      4035      4038      4041
      4037      4035      4038      4039      4037      4035      4038      4040
      4037      4035      4038      4041      4042      4045      4048      4049
      4042      4045      4048      4050      4042      4045      4048      4051
      4043      4042      4045      4046      4043      4042      4045      4047
      4043      4042      4045      4048      4044      4042      4045      4046
      4044      4042      4045      4047      4044      4042      4045      4048
      4045      4048      4051      4052      4045      4048      4051      4053
      4045      4048      4051      4054      4046      4045      4048      4049
      4046      4045      4048      4050      4046      4045      4048      4051
      4047      4045      4048      4049      4047      4045      4048      4050
      4047      4045      4048      4051      4048      4051      4054      4055
      4048      4051      4054      4056      4048      4051      4054      4057
      4049      4048      4051      4052      4049      4048      4051      4053
      4049      4048      4051      4054      4050      4048      4051      4052
      4050      4048      4051      4053      4050      4048      4051      4054
      4051      4054      4057      4058      4051      4054      4057      4059
      4051      4054      4057      4060      4052      4051      4054      4055
      4052      4051      4054      4056      4052      4051      4054      4057
      4053      4051      4054      4055      4053      4051      4054      4056
      4053      4051      4054      4057      4054      4057      4060      4061
      4054      4057      4060      4062      4055      4054      4057      4058
      4055      4054      4057      4059      4055      4054      4057      4060
      4056      4054      4057      4058      4056      4054      4057      4059
      4056      4054      4057      4060      4057      4060      4062      4063
      4057      4060      4062      4064      4058      4057      4060      4061
      4058      4057      4060      4062      4059      4057      4060      4061
      4059      4057      4060      4062      4060      4062      4064      4065
      4060      4062      4064      4066      4060      4062      4064      4067
      4061      4060      4062      4063      4061      4060      4062      4064
      4062      4064      4067      4068      4062      4064      4067      4069
      4062      4064      4067      4070      4063      4062      4064      4065
      4063      4062      4064      4066      4063      4062      4064      4067
      4064      4067      4070      4071      4064      4067      4070      4072
      4064      4067      4070      4073      4065      4064      4067      4068
      4065      4064      4067      4069      4065      4064      4067      4070
      4066      4064      4067      4068      4066      4064      4067      4069
      4066      4064      4067      4070      4067      4070      4073      4074
      4067      4070      4073      4075      4067      4070      4073      4076
      4068      4067      4070      4071      4068      4067      4070      4072
      4068      4067      4070      4073      4069      4067      4070      4071
      4069      4067      4070      4072      4069      4067      4070      4073
      4070      4073      4076      4077      4070      4073      4076      4078
      4070      4073      4076      4079      4071      4070      4073      4074
      4071      4070      4073      4075      4071      4070      4073      4076
      4072      4070      4073      4074      4072      4070      4073      4075
      4072      4070      4073      4076      4073      4076      4079      4080
      4073      4076      4079      4081      4073      4076      4079      4082
      4074      4073      4076      4077      4074      4073      4076      4078
      4074      4073      4076      4079      4075      4073      4076      4077
      4075      4073      4076      4078      4075      4073      4076      4079
      4076      4079      4082      4083      4076      4079      4082      4084
      4076      4079      4082      4085      4077      4076      4079      4080
      4077      4076      4079      4081      4077      4076      4079      4082
      4078      4076      4079      4080      4078      4076      4079      4081
      4078      4076      4079      4082      4079      4082      4085      4086
      4079      4082      4085      4087      4079      4082      4085      4088
      4080      4079      4082      4083      4080      4079      4082      4084
      4080      4079      4082      4085      4081      4079      4082      4083
      4081      4079      4082      4084      4081      4079      4082      4085
      4083      4082      4085      4086      4083      4082      4085      4087
      4083      4082      4085      4088      4084      4082      4085      4086
      4084      4082      4085      4087      4084      4082      4085      4088
      4089      4090      4105      4106      4089      4090      4105      4107
      4089      4090      4105      4111      4090      4089      4093      4094
      4090      4089      4093      4095      4090      4089      4093      4096
      4090      4089      4097      4098      4090      4089      4097      4099
      4090      4089      4097      4100      4090      4089      4101      4102
      4090      4089      4101      4103      4090      4089      4101      4104
      4090      4105      4111      4108      4091      4090      4089      4093
      4091      4090      4089      4097      4091      4090      4089      4101
      4091      4090      4105      4106      4091      4090      4105      4107
      4091      4090      4105      4111      4092      4090      4089      4093
      4092      4090      4089      4097      4092      4090      4089      4101
      4092      4090      4105      4106      4092      4090      4105      4107
      4092      4090      4105      4111      4093      4089      4090      4105
      4093      4089      4097      4098      4093      4089      4097      4099
      4093      4089      4097      4100      4093      4089      4101      4102
      4093      4089      4101      4103      4093      4089      4101      4104
      4094      4093      4089      4097      4094      4093      4089      4101
      4095      4093      4089      4097      4095      4093      4089      4101
      4096      4093      4089      4097      4096      4093      4089      4101
      4097      4089      4090      4105      4097      4089      4101      4102
      4097      4089      4101      4103      4097      4089      4101      4104
      4098      4097      4089      4101      4099      4097      4089      4101
      4100      4097      4089      4101      4101      4089      4090      4105
      4105      4111      4108      4109      4105      4111      4108      4110
      4105      4111      4108      4112      4106      4105      4111      4108
      4107      4105      4111      4108      4108      4112      4113      4114
      4108      4112      4113      4115      4108      4112      4113      4116
      4109      4108      4112      4113      4110      4108      4112      4113
      4111      4108      4112      4113      4112      4113      4116      4117
      4112      4113      4116      4118      4112      4113      4116      4124
      4113      4116      4118      4119      4113      4116      4124      4125
      4113      4116      4124      4126      4113      4116      4124      4127
      4114      4113      4116      4117      4114      4113      4116      4118
      4114      4113      4116      4124      4115      4113      4116      4117
      4115      4113      4116      4118      4115      4113      4116      4124
      4116      4118      4119      4120      4116      4118      4119      4121
      4116      4124      4127      4128      4117      4116      4118      4119
      4117      4116      4124      4125      4117      4116      4124      4126
      4117      4116      4124      4127      4118      4116      4124      4125
      4118      4116      4124      4126      4118      4116      4124      4127
      4118      4119      4121      4122      4118      4119      4121      4123
      4118      4119      4121      4133      4119      4118      4116      4124
      4119      4121      4133      4134      4119      4121      4133      4135
      4119      4121      4133      4136      4120      4119      4121      4122
      4120      4119      4121      4123      4120      4119      4121      4133
      4121      4133      4136      4137      4121      4133      4136      4138
      4121      4133      4136      4139      4122      4121      4133      4134
      4122      4121      4133      4135      4122      4121      4133      4136
      4123      4121      4133      4134      4123      4121      4133      4135
      4123      4121      4133      4136      4124      4127      4128      4129
      4124      4127      4128      4130      4125      4124      4127      4128
      4126      4124      4127      4128      4127      4128      4130      4131
      4127      4128      4130      4132      4127      4128      4130      4180
      4128      4130      4180      4181      4128      4130      4180      4182
      4128      4130      4180      4183      4129      4128      4130      4131
      4129      4128      4130      4132      4129      4128      4130      4180
      4130      4180      4183      4184      4130      4180      4183      4185
      4130      4180      4183      4186      4131      4130      4180      4181
      4131      4130      4180      4182      4131      4130      4180      4183
      4132      4130      4180      4181      4132      4130      4180      4182
      4132      4130      4180      4183      4133      4136      4139      4140
      4133      4136      4139      4141      4133      4136      4139      4142
      4134      4133      4136      4137      4134      4133      4136      4138
      4134      4133      4136      4139      4135      4133      4136      4137
      4135      4133      4136      4138      4135      4133      4136      4139
      4136      4139      4142      4143      4136      4139      4142      4144
      4136      4139      4142      4145      4137      4136      4139      4140
      4137      4136      4139      4141      4137      4136      4139      4142
      4138      4136      4139      4140      4138      4136      4139      4141
      4138      4136      4139      4142      4139      4142      4145      4146
      4139      4142      4145      4147      4139      4142      4145      4148
      4140      4139      4142      4143      4140      4139      4142      4144
      4140      4139      4142      4145      4141      4139      4142      4143
      4141      4139      4142      4144      4141      4139      4142      4145
      4142      4145      4148      4149      4142      4145      4148      4150
      4142      4145      4148      4151      4143      4142      4145      4146
      4143      4142      4145      4147      4143      4142      4145      4148
      4144      4142      4145      4146      4144      4142      4145      4147
      4144      4142      4145      4148      4145      4148      4151      4152
      4145      4148      4151      4153      4146      4145      4148      4149
      4146      4145      4148      4150      4146      4145      4148      4151
      4147      4145      4148      4149      4147      4145      4148      4150
      4147      4145      4148      4151      4148      4151      4153      4154
      4148      4151      4153      4155      4149      4148      4151      4152
      4149      4148      4151      4153      4150      4148      4151      4152
      4150      4148      4151      4153      4151      4153      4155      4156
      4151      4153      4155      4157      4151      4153      4155      4158
      4152      4151      4153      4154      4152      4151      4153      4155
      4153      4155      4158      4159      4153      4155      4158      4160
      4153      4155      4158      4161      4154      4153      4155      4156
      4154      4153      4155      4157      4154      4153      4155      4158
      4155      4158      4161      4162      4155      4158      4161      4163
      4155      4158      4161      4164      4156      4155      4158      4159
      4156      4155      4158      4160      4156      4155      4158      4161
      4157      4155      4158      4159      4157      4155      4158      4160
      4157      4155      4158      4161      4158      4161      4164      4165
      4158      4161      4164      4166      4158      4161      4164      4167
      4159      4158      4161      4162      4159      4158      4161      4163
      4159      4158      4161      4164      4160      4158      4161      4162
      4160      4158      4161      4163      4160      4158      4161      4164
      4161      4164      4167      4168      4161      4164      4167      4169
      4161      4164      4167      4170      4162      4161      4164      4165
      4162      4161      4164      4166      4162      4161      4164      4167
      4163      4161      4164      4165      4163      4161      4164      4166
      4163      4161      4164      4167      4164      4167      4170      4171
      4164      4167      4170      4172      4164      4167      4170      4173
      4165      4164      4167      4168      4165      4164      4167      4169
      4165      4164      4167      4170      4166      4164      4167      4168
      4166      4164      4167      4169      4166      4164      4167      4170
      4167      4170      4173      4174      4167      4170      4173      4175
      4167      4170      4173      4176      4168      4167      4170      4171
      4168      4167      4170      4172      4168      4167      4170      4173
      4169      4167      4170      4171      4169      4167      4170      4172
      4169      4167      4170      4173      4170      4173      4176      4177
      4170      4173      4176      4178      4170      4173      4176      4179
      4171      4170      4173      4174      4171      4170      4173      4175
      4171      4170      4173      4176      4172      4170      4173      4174
      4172      4170      4173      4175      4172      4170      4173      4176
      4174      4173      4176      4177      4174      4173      4176      4178
      4174      4173      4176      4179      4175      4173      4176      4177
      4175      4173      4176      4178      4175      4173      4176      4179
      4180      4183      4186      4187      4180      4183      4186      4188
      4180      4183      4186      4189      4181      4180      4183      4184
      4181      4180      4183      4185      4181      4180      4183      4186
      4182      4180      4183      4184      4182      4180      4183      4185
      4182      4180      4183      4186      4183      4186      4189      4190
      4183      4186      4189      4191      4183      4186      4189      4192
      4184      4183      4186      4187      4184      4183      4186      4188
      4184      4183      4186      4189      4185      4183      4186      4187
      4185      4183      4186      4188      4185      4183      4186      4189
      4186      4189      4192      4193      4186      4189      4192      4194
      4186      4189      4192      4195      4187      4186      4189      4190
      4187      4186      4189      4191      4187      4186      4189      4192
      4188      4186      4189      4190      4188      4186      4189      4191
      4188      4186      4189      4192      4189      4192      4195      4196
      4189      4192      4195      4197      4189      4192      4195      4198
      4190      4189      4192      4193      4190      4189      4192      4194
      4190      4189      4192      4195      4191      4189      4192      4193
      4191      4189      4192      4194      4191      4189      4192      4195
      4192      4195      4198      4199      4192      4195      4198      4200
      4193      4192      4195      4196      4193      4192      4195      4197
      4193      4192      4195      4198      4194      4192      4195      4196
      4194      4192      4195      4197      4194      4192      4195      4198
      4195      4198      4200      4201      4195      4198      4200      4202
      4196      4195      4198      4199      4196      4195      4198      4200
      4197      4195      4198      4199      4197      4195      4198      4200
      4198      4200      4202      4203      4198      4200      4202      4204
      4198      4200      4202      4205      4199      4198      4200      4201
      4199      4198      4200      4202      4200      4202      4205      4206
      4200      4202      4205      4207      4200      4202      4205      4208
      4201      4200      4202      4203      4201      4200      4202      4204
      4201      4200      4202      4205      4202      4205      4208      4209
      4202      4205      4208      4210      4202      4205      4208      4211
      4203      4202      4205      4206      4203      4202      4205      4207
      4203      4202      4205      4208      4204      4202      4205      4206
      4204      4202      4205      4207      4204      4202      4205      4208
      4205      4208      4211      4212      4205      4208      4211      4213
      4205      4208      4211      4214      4206      4205      4208      4209
      4206      4205      4208      4210      4206      4205      4208      4211
      4207      4205      4208      4209      4207      4205      4208      4210
      4207      4205      4208      4211      4208      4211      4214      4215
      4208      4211      4214      4216      4208      4211      4214      4217
      4209      4208      4211      4212      4209      4208      4211      4213
      4209      4208      4211      4214      4210      4208      4211      4212
      4210      4208      4211      4213      4210      4208      4211      4214
      4211      4214      4217      4218      4211      4214      4217      4219
      4211      4214      4217      4220      4212      4211      4214      4215
      4212      4211      4214      4216      4212      4211      4214      4217
      4213      4211      4214      4215      4213      4211      4214      4216
      4213      4211      4214      4217      4214      4217      4220      4221
      4214      4217      4220      4222      4214      4217      4220      4223
      4215      4214      4217      4218      4215      4214      4217      4219
      4215      4214      4217      4220      4216      4214      4217      4218
      4216      4214      4217      4219      4216      4214      4217      4220
      4217      4220      4223      4224      4217      4220      4223      4225
      4217      4220      4223      4226      4218      4217      4220      4221
      4218      4217      4220      4222      4218      4217      4220      4223
      4219      4217      4220      4221      4219      4217      4220      4222
      4219      4217      4220      4223      4221      4220      4223      4224
      4221      4220      4223      4225      4221      4220      4223      4226
      4222      4220      4223      4224      4222      4220      4223      4225
      4222      4220      4223      4226      4227      4228      4243      4244
      4227      4228      4243      4245      4227      4228      4243      4249
      4228      4227      4231      4232      4228      4227      4231      4233
      4228      4227      4231      4234      4228      4227      4235      4236
      4228      4227      4235      4237      4228      4227      4235      4238
      4228      4227      4239      4240      4228      4227      4239      4241
      4228      4227      4239      4242      4228      4243      4249      4246
      4229      4228      4227      4231      4229      4228      4227      4235
      4229      4228      4227      4239      4229      4228      4243      4244
      4229      4228      4243      4245      4229      4228      4243      4249
      4230      4228      4227      4231      4230      4228      4227      4235
      4230      4228      4227      4239      4230      4228      4243      4244
      4230      4228      4243      4245      4230      4228      4243      4249
      4231      4227      4228      4243      4231      4227      4235      4236
      4231      4227      4235      4237      4231      4227      4235      4238
      4231      4227      4239      4240      4231      4227      4239      4241
      4231      4227      4239      4242      4232      4231      4227      4235
      4232      4231      4227      4239      4233      4231      4227      4235
      4233      4231      4227      4239      4234      4231      4227      4235
      4234      4231      4227      4239      4235      4227      4228      4243
      4235      4227      4239      4240      4235      4227      4239      4241
      4235      4227      4239      4242      4236      4235      4227      4239
      4237      4235      4227      4239      4238      4235      4227      4239
      4239      4227      4228      4243      4243      4249      4246      4247
      4243      4249      4246      4248      4243      4249      4246      4250
      4244      4243      4249      4246      4245      4243      4249      4246
      4246      4250      4251      4252      4246      4250      4251      4253
      4246      4250      4251      4254      4247      4246      4250      4251
      4248      4246      4250      4251      4249      4246      4250      4251
      4250      4251      4254      4255      4250      4251      4254      4256
      4250      4251      4254      4262      4251      4254      4256      4257
      4251      4254      4262      4263      4251      4254      4262      4264
      4251      4254      4262      4265      4252      4251      4254      4255
      4252      4251      4254      4256      4252      4251      4254      4262
      4253      4251      4254      4255      4253      4251      4254      4256
      4253      4251      4254      4262      4254      4256      4257      4258
      4254      4256      4257      4259      4254      4262      4265      4266
      4255      4254      4256      4257      4255      4254      4262      4263
      4255      4254      4262      4264      4255      4254      4262      4265
      4256      4254      4262      4263      4256      4254      4262      4264
      4256      4254      4262      4265      4256      4257      4259      4260
      4256      4257      4259      4261      4256      4257      4259      4271
      4257      4256      4254      4262      4257      4259      4271      4272
      4257      4259      4271      4273      4257      4259      4271      4274
      4258      4257      4259      4260      4258      4257      4259      4261
      4258      4257      4259      4271      4259      4271      4274      4275
      4259      4271      4274      4276      4259      4271      4274      4277
      4260      4259      4271      4272      4260      4259      4271      4273
      4260      4259      4271      4274      4261      4259      4271      4272
      4261      4259      4271      4273      4261      4259      4271      4274
      4262      4265      4266      4267      4262      4265      4266      4268
      4263      4262      4265      4266      4264      4262      4265      4266
      4265      4266      4268      4269      4265      4266      4268      4270
      4265      4266      4268      4318      4266      4268      4318      4319
      4266      4268      4318      4320      4266      4268      4318      4321
      4267      4266      4268      4269      4267      4266      4268      4270
      4267      4266      4268      4318      4268      4318      4321      4322
      4268      4318      4321      4323      4268      4318      4321      4324
      4269      4268      4318      4319      4269      4268      4318      4320
      4269      4268      4318      4321      4270      4268      4318      4319
      4270      4268      4318      4320      4270      4268      4318      4321
      4271      4274      4277      4278      4271      4274      4277      4279
      4271      4274      4277      4280      4272      4271      4274      4275
      4272      4271      4274      4276      4272      4271      4274      4277
      4273      4271      4274      4275      4273      4271      4274      4276
      4273      4271      4274      4277      4274      4277      4280      4281
      4274      4277      4280      4282      4274      4277      4280      4283
      4275      4274      4277      4278      4275      4274      4277      4279
      4275      4274      4277      4280      4276      4274      4277      4278
      4276      4274      4277      4279      4276      4274      4277      4280
      4277      4280      4283      4284      4277      4280      4283      4285
      4277      4280      4283      4286      4278      4277      4280      4281
      4278      4277      4280      4282      4278      4277      4280      4283
      4279      4277      4280      4281      4279      4277      4280      4282
      4279      4277      4280      4283      4280      4283      4286      4287
      4280      4283      4286      4288      4280      4283      4286      4289
      4281      4280      4283      4284      4281      4280      4283      4285
      4281      4280      4283      4286      4282      4280      4283      4284
      4282      4280      4283      4285      4282      4280      4283      4286
      4283      4286      4289      4290      4283      4286      4289      4291
      4284      4283      4286      4287      4284      4283      4286      4288
      4284      4283      4286      4289      4285      4283      4286      4287
      4285      4283      4286      4288      4285      4283      4286      4289
      4286      4289      4291      4292      4286      4289      4291      4293
      4287      4286      4289      4290      4287      4286      4289      4291
      4288      4286      4289      4290      4288      4286      4289      4291
      4289      4291      4293      4294      4289      4291      4293      4295
      4289      4291      4293      4296      4290      4289      4291      4292
      4290      4289      4291      4293      4291      4293      4296      4297
      4291      4293      4296      4298      4291      4293      4296      4299
      4292      4291      4293      4294      4292      4291      4293      4295
      4292      4291      4293      4296      4293      4296      4299      4300
      4293      4296      4299      4301      4293      4296      4299      4302
      4294      4293      4296      4297      4294      4293      4296      4298
      4294      4293      4296      4299      4295      4293      4296      4297
      4295      4293      4296      4298      4295      4293      4296      4299
      4296      4299      4302      4303      4296      4299      4302      4304
      4296      4299      4302      4305      4297      4296      4299      4300
      4297      4296      4299      4301      4297      4296      4299      4302
      4298      4296      4299      4300      4298      4296      4299      4301
      4298      4296      4299      4302      4299      4302      4305      4306
      4299      4302      4305      4307      4299      4302      4305      4308
      4300      4299      4302      4303      4300      4299      4302      4304
      4300      4299      4302      4305      4301      4299      4302      4303
      4301      4299      4302      4304      4301      4299      4302      4305
      4302      4305      4308      4309      4302      4305      4308      4310
      4302      4305      4308      4311      4303      4302      4305      4306
      4303      4302      4305      4307      4303      4302      4305      4308
      4304      4302      4305      4306      4304      4302      4305      4307
      4304      4302      4305      4308      4305      4308      4311      4312
      4305      4308      4311      4313      4305      4308      4311      4314
      4306      4305      4308      4309      4306      4305      4308      4310
      4306      4305      4308      4311      4307      4305      4308      4309
      4307      4305      4308      4310      4307      4305      4308      4311
      4308      4311      4314      4315      4308      4311      4314      4316
      4308      4311      4314      4317      4309      4308      4311      4312
      4309      4308      4311      4313      4309      4308      4311      4314
      4310      4308      4311      4312      4310      4308      4311      4313
      4310      4308      4311      4314      4312      4311      4314      4315
      4312      4311      4314      4316      4312      4311      4314      4317
      4313      4311      4314      4315      4313      4311      4314      4316
      4313      4311      4314      4317      4318      4321      4324      4325
      4318      4321      4324      4326      4318      4321      4324      4327
      4319      4318      4321      4322      4319      4318      4321      4323
      4319      4318      4321      4324      4320      4318      4321      4322
      4320      4318      4321      4323      4320      4318      4321      4324
      4321      4324      4327      4328      4321      4324      4327      4329
      4321      4324      4327      4330      4322      4321      4324      4325
      4322      4321      4324      4326      4322      4321      4324      4327
      4323      4321      4324      4325      4323      4321      4324      4326
      4323      4321      4324      4327      4324      4327      4330      4331
      4324      4327      4330      4332      4324      4327      4330      4333
      4325      4324      4327      4328      4325      4324      4327      4329
      4325      4324      4327      4330      4326      4324      4327      4328
      4326      4324      4327      4329      4326      4324      4327      4330
      4327      4330      4333      4334      4327      4330      4333      4335
      4327      4330      4333      4336      4328      4327      4330      4331
      4328      4327      4330      4332      4328      4327      4330      4333
      4329      4327      4330      4331      4329      4327      4330      4332
      4329      4327      4330      4333      4330      4333      4336      4337
      4330      4333      4336      4338      4331      4330      4333      4334
      4331      4330      4333      4335      4331      4330      4333      4336
      4332      4330      4333      4334      4332      4330      4333      4335
      4332      4330      4333      4336      4333      4336      4338      4339
      4333      4336      4338      4340      4334      4333      4336      4337
      4334      4333      4336      4338      4335      4333      4336      4337
      4335      4333      4336      4338      4336      4338      4340      4341
      4336      4338      4340      4342      4336      4338      4340      4343
      4337      4336      4338      4339      4337      4336      4338      4340
      4338      4340      4343      4344      4338      4340      4343      4345
      4338      4340      4343      4346      4339      4338      4340      4341
      4339      4338      4340      4342      4339      4338      4340      4343
      4340      4343      4346      4347      4340      4343      4346      4348
      4340      4343      4346      4349      4341      4340      4343      4344
      4341      4340      4343      4345      4341      4340      4343      4346
      4342      4340      4343      4344      4342      4340      4343      4345
      4342      4340      4343      4346      4343      4346      4349      4350
      4343      4346      4349      4351      4343      4346      4349      4352
      4344      4343      4346      4347      4344      4343      4346      4348
      4344      4343      4346      4349      4345      4343      4346      4347
      4345      4343      4346      4348      4345      4343      4346      4349
      4346      4349      4352      4353      4346      4349      4352      4354
      4346      4349      4352      4355      4347      4346      4349      4350
      4347      4346      4349      4351      4347      4346      4349      4352
      4348      4346      4349      4350      4348      4346      4349      4351
      4348      4346      4349      4352      4349      4352      4355      4356
      4349      4352      4355      4357      4349      4352      4355      4358
      4350      4349      4352      4353      4350      4349      4352      4354
      4350      4349      4352      4355      4351      4349      4352      4353
      4351      4349      4352      4354      4351      4349      4352      4355
      4352      4355      4358      4359      4352      4355      4358      4360
      4352      4355      4358      4361      4353      4352      4355      4356
      4353      4352      4355      4357      4353      4352      4355      4358
      4354      4352      4355      4356      4354      4352      4355      4357
      4354      4352      4355      4358      4355      4358      4361      4362
      4355      4358      4361      4363      4355      4358      4361      4364
      4356      4355      4358      4359      4356      4355      4358      4360
      4356      4355      4358      4361      4357      4355      4358      4359
      4357      4355      4358      4360      4357      4355      4358      4361
      4359      4358      4361      4362      4359      4358      4361      4363
      4359      4358      4361      4364      4360      4358      4361      4362
      4360      4358      4361      4363      4360      4358      4361      4364
      4365      4366      4381      4382      4365      4366      4381      4383
      4365      4366      4381      4387      4366      4365      4369      4370
      4366      4365      4369      4371      4366      4365      4369      4372
      4366      4365      4373      4374      4366      4365      4373      4375
      4366      4365      4373      4376      4366      4365      4377      4378
      4366      4365      4377      4379      4366      4365      4377      4380
      4366      4381      4387      4384      4367      4366      4365      4369
      4367      4366      4365      4373      4367      4366      4365      4377
      4367      4366      4381      4382      4367      4366      4381      4383
      4367      4366      4381      4387      4368      4366      4365      4369
      4368      4366      4365      4373      4368      4366      4365      4377
      4368      4366      4381      4382      4368      4366      4381      4383
      4368      4366      4381      4387      4369      4365      4366      4381
      4369      4365      4373      4374      4369      4365      4373      4375
      4369      4365      4373      4376      4369      4365      4377      4378
      4369      4365      4377      4379      4369      4365      4377      4380
      4370      4369      4365      4373      4370      4369      4365      4377
      4371      4369      4365      4373      4371      4369      4365      4377
      4372      4369      4365      4373      4372      4369      4365      4377
      4373      4365      4366      4381      4373      4365      4377      4378
      4373      4365      4377      4379      4373      4365      4377      4380
      4374      4373      4365      4377      4375      4373      4365      4377
      4376      4373      4365      4377      4377      4365      4366      4381
      4381      4387      4384      4385      4381      4387      4384      4386
      4381      4387      4384      4388      4382      4381      4387      4384
      4383      4381      4387      4384      4384      4388      4389      4390
      4384      4388      4389      4391      4384      4388      4389      4392
      4385      4384      4388      4389      4386      4384      4388      4389
      4387      4384      4388      4389      4388      4389      4392      4393
      4388      4389      4392      4394      4388      4389      4392      4400
      4389      4392      4394      4395      4389      4392      4400      4401
      4389      4392      4400      4402      4389      4392      4400      4403
      4390      4389      4392      4393      4390      4389      4392      4394
      4390      4389      4392      4400      4391      4389      4392      4393
      4391      4389      4392      4394      4391      4389      4392      4400
      4392      4394      4395      4396      4392      4394      4395      4397
      4392      4400      4403      4404      4393      4392      4394      4395
      4393      4392      4400      4401      4393      4392      4400      4402
      4393      4392      4400      4403      4394      4392      4400      4401
      4394      4392      4400      4402      4394      4392      4400      4403
      4394      4395      4397      4398      4394      4395      4397      4399
      4394      4395      4397      4409      4395      4394      4392      4400
      4395      4397      4409      4410      4395      4397      4409      4411
      4395      4397      4409      4412      4396      4395      4397      4398
      4396      4395      4397      4399      4396      4395      4397      4409
      4397      4409      4412      4413      4397      4409      4412      4414
      4397      4409      4412      4415      4398      4397      4409      4410
      4398      4397      4409      4411      4398      4397      4409      4412
      4399      4397      4409      4410      4399      4397      4409      4411
      4399      4397      4409      4412      4400      4403      4404      4405
      4400      4403      4404      4406      4401      4400      4403      4404
      4402      4400      4403      4404      4403      4404      4406      4407
      4403      4404      4406      4408      4403      4404      4406      4456
      4404      4406      4456      4457      4404      4406      4456      4458
      4404      4406      4456      4459      4405      4404      4406      4407
      4405      4404      4406      4408      4405      4404      4406      4456
      4406      4456      4459      4460      4406      4456      4459      4461
      4406      4456      4459      4462      4407      4406      4456      4457
      4407      4406      4456      4458      4407      4406      4456      4459
      4408      4406      4456      4457      4408      4406      4456      4458
      4408      4406      4456      4459      4409      4412      4415      4416
      4409      4412      4415      4417      4409      4412      4415      4418
      4410      4409      4412      4413      4410      4409      4412      4414
      4410      4409      4412      4415      4411      4409      4412      4413
      4411      4409      4412      4414      4411      4409      4412      4415
      4412      4415      4418      4419      4412      4415      4418      4420
      4412      4415      4418      4421      4413      4412      4415      4416
      4413      4412      4415      4417      4413      4412      4415      4418
      4414      4412      4415      4416      4414      4412      4415      4417
      4414      4412      4415      4418      4415      4418      4421      4422
      4415      4418      4421      4423      4415      4418      4421      4424
      4416      4415      4418      4419      4416      4415      4418      4420
      4416      4415      4418      4421      4417      4415      4418      4419
      4417      4415      4418      4420      4417      4415      4418      4421
      4418      4421      4424      4425      4418      4421      4424      4426
      4418      4421      4424      4427      4419      4418      4421      4422
      4419      4418      4421      4423      4419      4418      4421      4424
      4420      4418      4421      4422      4420      4418      4421      4423
      4420      4418      4421      4424      4421      4424      4427      4428
      4421      4424      4427      4429      4422      4421      4424      4425
      4422      4421      4424      4426      4422      4421      4424      4427
      4423      4421      4424      4425      4423      4421      4424      4426
      4423      4421      4424      4427      4424      4427      4429      4430
      4424      4427      4429      4431      4425      4424      4427      4428
      4425      4424      4427      4429      4426      4424      4427      4428
      4426      4424      4427      4429      4427      4429      4431      4432
      4427      4429      4431      4433      4427      4429      4431      4434
      4428      4427      4429      4430      4428      4427      4429      4431
      4429      4431      4434      4435      4429      4431      4434      4436
      4429      4431      4434      4437      4430      4429      4431      4432
      4430      4429      4431      4433      4430      4429      4431      4434
      4431      4434      4437      4438      4431      4434      4437      4439
      4431      4434      4437      4440      4432      4431      4434      4435
      4432      4431      4434      4436      4432      4431      4434      4437
      4433      4431      4434      4435      4433      4431      4434      4436
      4433      4431      4434      4437      4434      4437      4440      4441
      4434      4437      4440      4442      4434      4437      4440      4443
      4435      4434      4437      4438      4435      4434      4437      4439
      4435      4434      4437      4440      4436      4434      4437      4438
      4436      4434      4437      4439      4436      4434      4437      4440
      4437      4440      4443      4444      4437      4440      4443      4445
      4437      4440      4443      4446      4438      4437      4440      4441
      4438      4437      4440      4442      4438      4437      4440      4443
      4439      4437      4440      4441      4439      4437      4440      4442
      4439      4437      4440      4443      4440      4443      4446      4447
      4440      4443      4446      4448      4440      4443      4446      4449
      4441      4440      4443      4444      4441      4440      4443      4445
      4441      4440      4443      4446      4442      4440      4443      4444
      4442      4440      4443      4445      4442      4440      4443      4446
      4443      4446      4449      4450      4443      4446      4449      4451
      4443      4446      4449      4452      4444      4443      4446      4447
      4444      4443      4446      4448      4444      4443      4446      4449
      4445      4443      4446      4447      4445      4443      4446      4448
      4445      4443      4446      4449      4446      4449      4452      4453
      4446      4449      4452      4454      4446      4449      4452      4455
      4447      4446      4449      4450      4447      4446      4449      4451
      4447      4446      4449      4452      4448      4446      4449      4450
      4448      4446      4449      4451      4448      4446      4449      4452
      4450      4449      4452      4453      4450      4449      4452      4454
      4450      4449      4452      4455      4451      4449      4452      4453
      4451      4449      4452      4454      4451      4449      4452      4455
      4456      4459      4462      4463      4456      4459      4462      4464
      4456      4459      4462      4465      4457      4456      4459      4460
      4457      4456      4459      4461      4457      4456      4459      4462
      4458      4456      4459      4460      4458      4456      4459      4461
      4458      4456      4459      4462      4459      4462      4465      4466
      4459      4462      4465      4467      4459      4462      4465      4468
      4460      4459      4462      4463      4460      4459      4462      4464
      4460      4459      4462      4465      4461      4459      4462      4463
      4461      4459      4462      4464      4461      4459      4462      4465
      4462      4465      4468      4469      4462      4465      4468      4470
      4462      4465      4468      4471      4463      4462      4465      4466
      4463      4462      4465      4467      4463      4462      4465      4468
      4464      4462      4465      4466      4464      4462      4465      4467
      4464      4462      4465      4468      4465      4468      4471      4472
      4465      4468      4471      4473      4465      4468      4471      4474
      4466      4465      4468      4469      4466      4465      4468      4470
      4466      4465      4468      4471      4467      4465      4468      4469
      4467      4465      4468      4470      4467      4465      4468      4471
      4468      4471      4474      4475      4468      4471      4474      4476
      4469      4468      4471      4472      4469      4468      4471      4473
      4469      4468      4471      4474      4470      4468      4471      4472
      4470      4468      4471      4473      4470      4468      4471      4474
      4471      4474      4476      4477      4471      4474      4476      4478
      4472      4471      4474      4475      4472      4471      4474      4476
      4473      4471      4474      4475      4473      4471      4474      4476
      4474      4476      4478      4479      4474      4476      4478      4480
      4474      4476      4478      4481      4475      4474      4476      4477
      4475      4474      4476      4478      4476      4478      4481      4482
      4476      4478      4481      4483      4476      4478      4481      4484
      4477      4476      4478      4479      4477      4476      4478      4480
      4477      4476      4478      4481      4478      4481      4484      4485
      4478      4481      4484      4486      4478      4481      4484      4487
      4479      4478      4481      4482      4479      4478      4481      4483
      4479      4478      4481      4484      4480      4478      4481      4482
      4480      4478      4481      4483      4480      4478      4481      4484
      4481      4484      4487      4488      4481      4484      4487      4489
      4481      4484      4487      4490      4482      4481      4484      4485
      4482      4481      4484      4486      4482      4481      4484      4487
      4483      4481      4484      4485      4483      4481      4484      4486
      4483      4481      4484      4487      4484      4487      4490      4491
      4484      4487      4490      4492      4484      4487      4490      4493
      4485      4484      4487      4488      4485      4484      4487      4489
      4485      4484      4487      4490      4486      4484      4487      4488
      4486      4484      4487      4489      4486      4484      4487      4490
      4487      4490      4493      4494      4487      4490      4493      4495
      4487      4490      4493      4496      4488      4487      4490      4491
      4488      4487      4490      4492      4488      4487      4490      4493
      4489      4487      4490      4491      4489      4487      4490      4492
      4489      4487      4490      4493      4490      4493      4496      4497
      4490      4493      4496      4498      4490      4493      4496      4499
      4491      4490      4493      4494      4491      4490      4493      4495
      4491      4490      4493      4496      4492      4490      4493      4494
      4492      4490      4493      4495      4492      4490      4493      4496
      4493      4496      4499      4500      4493      4496      4499      4501
      4493      4496      4499      4502      4494      4493      4496      4497
      4494      4493      4496      4498      4494      4493      4496      4499
      4495      4493      4496      4497      4495      4493      4496      4498
      4495      4493      4496      4499      4497      4496      4499      4500
      4497      4496      4499      4501      4497      4496      4499      4502
      4498      4496      4499      4500      4498      4496      4499      4501
      4498      4496      4499      4502      4503      4504      4519      4520
      4503      4504      4519      4521      4503      4504      4519      4525
      4504      4503      4507      4508      4504      4503      4507      4509
      4504      4503      4507      4510      4504      4503      4511      4512
      4504      4503      4511      4513      4504      4503      4511      4514
      4504      4503      4515      4516      4504      4503      4515      4517
      4504      4503      4515      4518      4504      4519      4525      4522
      4505      4504      4503      4507      4505      4504      4503      4511
      4505      4504      4503      4515      4505      4504      4519      4520
      4505      4504      4519      4521      4505      4504      4519      4525
      4506      4504      4503      4507      4506      4504      4503      4511
      4506      4504      4503      4515      4506      4504      4519      4520
      4506      4504      4519      4521      4506      4504      4519      4525
      4507      4503      4504      4519      4507      4503      4511      4512
      4507      4503      4511      4513      4507      4503      4511      4514
      4507      4503      4515      4516      4507      4503      4515      4517
      4507      4503      4515      4518      4508      4507      4503      4511
      4508      4507      4503      4515      4509      4507      4503      4511
      4509      4507      4503      4515      4510      4507      4503      4511
      4510      4507      4503      4515      4511      4503      4504      4519
      4511      4503      4515      4516      4511      4503      4515      4517
      4511      4503      4515      4518      4512      4511      4503      4515
      4513      4511      4503      4515      4514      4511      4503      4515
      4515      4503      4504      4519      4519      4525      4522      4523
      4519      4525      4522      4524      4519      4525      4522      4526
      4520      4519      4525      4522      4521      4519      4525      4522
      4522      4526      4527      4528      4522      4526      4527      4529
      4522      4526      4527      4530      4523      4522      4526      4527
      4524      4522      4526      4527      4525      4522      4526      4527
      4526      4527      4530      4531      4526      4527      4530      4532
      4526      4527      4530      4538      4527      4530      4532      4533
      4527      4530      4538      4539      4527      4530      4538      4540
      4527      4530      4538      4541      4528      4527      4530      4531
      4528      4527      4530      4532      4528      4527      4530      4538
      4529      4527      4530      4531      4529      4527      4530      4532
      4529      4527      4530      4538      4530      4532      4533      4534
      4530      4532      4533      4535      4530      4538      4541      4542
      4531      4530      4532      4533      4531      4530      4538      4539
      4531      4530      4538      4540      4531      4530      4538      4541
      4532      4530      4538      4539      4532      4530      4538      4540
      4532      4530      4538      4541      4532      4533      4535      4536
      4532      4533      4535      4537      4532      4533      4535      4547
      4533      4532      4530      4538      4533      4535      4547      4548
      4533      4535      4547      4549      4533      4535      4547      4550
      4534      4533      4535      4536      4534      4533      4535      4537
      4534      4533      4535      4547      4535      4547      4550      4551
      4535      4547      4550      4552      4535      4547      4550      4553
      4536      4535      4547      4548      4536      4535      4547      4549
      4536      4535      4547      4550      4537      4535      4547      4548
      4537      4535      4547      4549      4537      4535      4547      4550
      4538      4541      4542      4543      4538      4541      4542      4544
      4539      4538      4541      4542      4540      4538      4541      4542
      4541      4542      4544      4545      4541      4542      4544      4546
      4541      4542      4544      4594      4542      4544      4594      4595
      4542      4544      4594      4596      4542      4544      4594      4597
      4543      4542      4544      4545      4543      4542      4544      4546
      4543      4542      4544      4594      4544      4594      4597      4598
      4544      4594      4597      4599      4544      4594      4597      4600
      4545      4544      4594      4595      4545      4544      4594      4596
      4545      4544      4594      4597      4546      4544      4594      4595
      4546      4544      4594      4596      4546      4544      4594      4597
      4547      4550      4553      4554      4547      4550      4553      4555
      4547      4550      4553      4556      4548      4547      4550      4551
      4548      4547      4550      4552      4548      4547      4550      4553
      4549      4547      4550      4551      4549      4547      4550      4552
      4549      4547      4550      4553      4550      4553      4556      4557
      4550      4553      4556      4558      4550      4553      4556      4559
      4551      4550      4553      4554      4551      4550      4553      4555
      4551      4550      4553      4556      4552      4550      4553      4554
      4552      4550      4553      4555      4552      4550      4553      4556
      4553      4556      4559      4560      4553      4556      4559      4561
      4553      4556      4559      4562      4554      4553      4556      4557
      4554      4553      4556      4558      4554      4553      4556      4559
      4555      4553      4556      4557      4555      4553      4556      4558
      4555      4553      4556      4559      4556      4559      4562      4563
      4556      4559      4562      4564      4556      4559      4562      4565
      4557      4556      4559      4560      4557      4556      4559      4561
      4557      4556      4559      4562      4558      4556      4559      4560
      4558      4556      4559      4561      4558      4556      4559      4562
      4559      4562      4565      4566      4559      4562      4565      4567
      4560      4559      4562      4563      4560      4559      4562      4564
      4560      4559      4562      4565      4561      4559      4562      4563
      4561      4559      4562      4564      4561      4559      4562      4565
      4562      4565      4567      4568      4562      4565      4567      4569
      4563      4562      4565      4566      4563      4562      4565      4567
      4564      4562      4565      4566      4564      4562      4565      4567
      4565      4567      4569      4570      4565      4567      4569      4571
      4565      4567      4569      4572      4566      4565      4567      4568
      4566      4565      4567      4569      4567      4569      4572      4573
      4567      4569      4572      4574      4567      4569      4572      4575
      4568      4567      4569      4570      4568      4567      4569      4571
      4568      4567      4569      4572      4569      4572      4575      4576
      4569      4572      4575      4577      4569      4572      4575      4578
      4570      4569      4572      4573      4570      4569      4572      4574
      4570      4569      4572      4575      4571      4569      4572      4573
      4571      4569      4572      4574      4571      4569      4572      4575
      4572      4575      4578      4579      4572      4575      4578      4580
      4572      4575      4578      4581      4573      4572      4575      4576
      4573      4572      4575      4577      4573      4572      4575      4578
      4574      4572      4575      4576      4574      4572      4575      4577
      4574      4572      4575      4578      4575      4578      4581      4582
      4575      4578      4581      4583      4575      4578      4581      4584
      4576      4575      4578      4579      4576      4575      4578      4580
      4576      4575      4578      4581      4577      4575      4578      4579
      4577      4575      4578      4580      4577      4575      4578      4581
      4578      4581      4584      4585      4578      4581      4584      4586
      4578      4581      4584      4587      4579      4578      4581      4582
      4579      4578      4581      4583      4579      4578      4581      4584
      4580      4578      4581      4582      4580      4578      4581      4583
      4580      4578      4581      4584      4581      4584      4587      4588
      4581      4584      4587      4589      4581      4584      4587      4590
      4582      4581      4584      4585      4582      4581      4584      4586
      4582      4581      4584      4587      4583      4581      4584      4585
      4583      4581      4584      4586      4583      4581      4584      4587
      4584      4587      4590      4591      4584      4587      4590      4592
      4584      4587      4590      4593      4585      4584      4587      4588
      4585      4584      4587      4589      4585      4584      4587      4590
      4586      4584      4587      4588      4586      4584      4587      4589
      4586      4584      4587      4590      4588      4587      4590      4591
      4588      4587      4590      4592      4588      4587      4590      4593
      4589      4587      4590      4591      4589      4587      4590      4592
      4589      4587      4590      4593      4594      4597      4600      4601
      4594      4597      4600      4602      4594      4597      4600      4603
      4595      4594      4597      4598      4595      4594      4597      4599
      4595      4594      4597      4600      4596      4594      4597      4598
      4596      4594      4597      4599      4596      4594      4597      4600
      4597      4600      4603      4604      4597      4600      4603      4605
      4597      4600      4603      4606      4598      4597      4600      4601
      4598      4597      4600      4602      4598      4597      4600      4603
      4599      4597      4600      4601      4599      4597      4600      4602
      4599      4597      4600      4603      4600      4603      4606      4607
      4600      4603      4606      4608      4600      4603      4606      4609
      4601      4600      4603      4604      4601      4600      4603      4605
      4601      4600      4603      4606      4602      4600      4603      4604
      4602      4600      4603      4605      4602      4600      4603      4606
      4603      4606      4609      4610      4603      4606      4609      4611
      4603      4606      4609      4612      4604      4603      4606      4607
      4604      4603      4606      4608      4604      4603      4606      4609
      4605      4603      4606      4607      4605      4603      4606      4608
      4605      4603      4606      4609      4606      4609      4612      4613
      4606      4609      4612      4614      4607      4606      4609      4610
      4607      4606      4609      4611      4607      4606      4609      4612
      4608      4606      4609      4610      4608      4606      4609      4611
      4608      4606      4609      4612      4609      4612      4614      4615
      4609      4612      4614      4616      4610      4609      4612      4613
      4610      4609      4612      4614      4611      4609      4612      4613
      4611      4609      4612      4614      4612      4614      4616      4617
      4612      4614      4616      4618      4612      4614      4616      4619
      4613      4612      4614      4615      4613      4612      4614      4616
      4614      4616      4619      4620      4614      4616      4619      4621
      4614      4616      4619      4622      4615      4614      4616      4617
      4615      4614      4616      4618      4615      4614      4616      4619
      4616      4619      4622      4623      4616      4619      4622      4624
      4616      4619      4622      4625      4617      4616      4619      4620
      4617      4616      4619      4621      4617      4616      4619      4622
      4618      4616      4619      4620      4618      4616      4619      4621
      4618      4616      4619      4622      4619      4622      4625      4626
      4619      4622      4625      4627      4619      4622      4625      4628
      4620      4619      4622      4623      4620      4619      4622      4624
      4620      4619      4622      4625      4621      4619      4622      4623
      4621      4619      4622      4624      4621      4619      4622      4625
      4622      4625      4628      4629      4622      4625      4628      4630
      4622      4625      4628      4631      4623      4622      4625      4626
      4623      4622      4625      4627      4623      4622      4625      4628
      4624      4622      4625      4626      4624      4622      4625      4627
      4624      4622      4625      4628      4625      4628      4631      4632
      4625      4628      4631      4633      4625      4628      4631      4634
      4626      4625      4628      4629      4626      4625      4628      4630
      4626      4625      4628      4631      4627      4625      4628      4629
      4627      4625      4628      4630      4627      4625      4628      4631
      4628      4631      4634      4635      4628      4631      4634      4636
      4628      4631      4634      4637      4629      4628      4631      4632
      4629      4628      4631      4633      4629      4628      4631      4634
      4630      4628      4631      4632      4630      4628      4631      4633
      4630      4628      4631      4634      4631      4634      4637      4638
      4631      4634      4637      4639      4631      4634      4637      4640
      4632      4631      4634      4635      4632      4631      4634      4636
      4632      4631      4634      4637      4633      4631      4634      4635
      4633      4631      4634      4636      4633      4631      4634      4637
      4635      4634      4637      4638      4635      4634      4637      4639
      4635      4634      4637      4640      4636      4634      4637      4638
      4636      4634      4637      4639      4636      4634      4637      4640
      4641      4642      4657      4658      4641      4642      4657      4659
      4641      4642      4657      4663      4642      4641      4645      4646
      4642      4641      4645      4647      4642      4641      4645      4648
      4642      4641      4649      4650      4642      4641      4649      4651
      4642      4641      4649      4652      4642      4641      4653      4654
      4642      4641      4653      4655      4642      4641      4653      4656
      4642      4657      4663      4660      4643      4642      4641      4645
      4643      4642      4641      4649      4643      4642      4641      4653
      4643      4642      4657      4658      4643      4642      4657      4659
      4643      4642      4657      4663      4644      4642      4641      4645
      4644      4642      4641      4649      4644      4642      4641      4653
      4644      4642      4657      4658      4644      4642      4657      4659
      4644      4642      4657      4663      4645      4641      4642      4657
      4645      4641      4649      4650      4645      4641      4649      4651
      4645      4641      4649      4652      4645      4641      4653      4654
      4645      4641      4653      4655      4645      4641      4653      4656
      4646      4645      4641      4649      4646      4645      4641      4653
      4647      4645      4641      4649      4647      4645      4641      4653
      4648      4645      4641      4649      4648      4645      4641      4653
      4649      4641      4642      4657      4649      4641      4653      4654
      4649      4641      4653      4655      4649      4641      4653      4656
      4650      4649      4641      4653      4651      4649      4641      4653
      4652      4649      4641      4653      4653      4641      4642      4657
      4657      4663      4660      4661      4657      4663      4660      4662
      4657      4663      4660      4664      4658      4657      4663      4660
      4659      4657      4663      4660      4660      4664      4665      4666
      4660      4664      4665      4667      4660      4664      4665      4668
      4661      4660      4664      4665      4662      4660      4664      4665
      4663      4660      4664      4665      4664      4665      4668      4669
      4664      4665      4668      4670      4664      4665      4668      4676
      4665      4668      4670      4671      4665      4668      4676      4677
      4665      4668      4676      4678      4665      4668      4676      4679
      4666      4665      4668      4669      4666      4665      4668      4670
      4666      4665      4668      4676      4667      4665      4668      4669
      4667      4665      4668      4670      4667      4665      4668      4676
      4668      4670      4671      4672      4668      4670      4671      4673
      4668      4676      4679      4680      4669      4668      4670      4671
      4669      4668      4676      4677      4669      4668      4676      4678
      4669      4668      4676      4679      4670      4668      4676      4677
      4670      4668      4676      4678      4670      4668      4676      4679
      4670      4671      4673      4674      4670      4671      4673      4675
      4670      4671      4673      4685      4671      4670      4668      4676
      4671      4673      4685      4686      4671      4673      4685      4687
      4671      4673      4685      4688      4672      4671      4673      4674
      4672      4671      4673      4675      4672      4671      4673      4685
      4673      4685      4688      4689      4673      4685      4688      4690
      4673      4685      4688      4691      4674      4673      4685      4686
      4674      4673      4685      4687      4674      4673      4685      4688
      4675      4673      4685      4686      4675      4673      4685      4687
      4675      4673      4685      4688      4676      4679      4680      4681
      4676      4679      4680      4682      4677      4676      4679      4680
      4678      4676      4679      4680      4679      4680      4682      4683
      4679      4680      4682      4684      4679      4680      4682      4732
      4680      4682      4732      4733      4680      4682      4732      4734
      4680      4682      4732      4735      4681      4680      4682      4683
      4681      4680      4682      4684      4681      4680      4682      4732
      4682      4732      4735      4736      4682      4732      4735      4737
      4682      4732      4735      4738      4683      4682      4732      4733
      4683      4682      4732      4734      4683      4682      4732      4735
      4684      4682      4732      4733      4684      4682      4732      4734
      4684      4682      4732      4735      4685      4688      4691      4692
      4685      4688      4691      4693      4685      4688      4691      4694
      4686      4685      4688      4689      4686      4685      4688      4690
      4686      4685      4688      4691      4687      4685      4688      4689
      4687      4685      4688      4690      4687      4685      4688      4691
      4688      4691      4694      4695      4688      4691      4694      4696
      4688      4691      4694      4697      4689      4688      4691      4692
      4689      4688      4691      4693      4689      4688      4691      4694
      4690      4688      4691      4692      4690      4688      4691      4693
      4690      4688      4691      4694      4691      4694      4697      4698
      4691      4694      4697      4699      4691      4694      4697      4700
      4692      4691      4694      4695      4692      4691      4694      4696
      4692      4691      4694      4697      4693      4691      4694      4695
      4693      4691      4694      4696      4693      4691      4694      4697
      4694      4697      4700      4701      4694      4697      4700      4702
      4694      4697      4700      4703      4695      4694      4697      4698
      4695      4694      4697      4699      4695      4694      4697      4700
      4696      4694      4697      4698      4696      4694      4697      4699
      4696      4694      4697      4700      4697      4700      4703      4704
      4697      4700      4703      4705      4698      4697      4700      4701
      4698      4697      4700      4702      4698      4697      4700      4703
      4699      4697      4700      4701      4699      4697      4700      4702
      4699      4697      4700      4703      4700      4703      4705      4706
      4700      4703      4705      4707      4701      4700      4703      4704
      4701      4700      4703      4705      4702      4700      4703      4704
      4702      4700      4703      4705      4703      4705      4707      4708
      4703      4705      4707      4709      4703      4705      4707      4710
      4704      4703      4705      4706      4704      4703      4705      4707
      4705      4707      4710      4711      4705      4707      4710      4712
      4705      4707      4710      4713      4706      4705      4707      4708
      4706      4705      4707      4709      4706      4705      4707      4710
      4707      4710      4713      4714      4707      4710      4713      4715
      4707      4710      4713      4716      4708      4707      4710      4711
      4708      4707      4710      4712      4708      4707      4710      4713
      4709      4707      4710      4711      4709      4707      4710      4712
      4709      4707      4710      4713      4710      4713      4716      4717
      4710      4713      4716      4718      4710      4713      4716      4719
      4711      4710      4713      4714      4711      4710      4713      4715
      4711      4710      4713      4716      4712      4710      4713      4714
      4712      4710      4713      4715      4712      4710      4713      4716
      4713      4716      4719      4720      4713      4716      4719      4721
      4713      4716      4719      4722      4714      4713      4716      4717
      4714      4713      4716      4718      4714      4713      4716      4719
      4715      4713      4716      4717      4715      4713      4716      4718
      4715      4713      4716      4719      4716      4719      4722      4723
      4716      4719      4722      4724      4716      4719      4722      4725
      4717      4716      4719      4720      4717      4716      4719      4721
      4717      4716      4719      4722      4718      4716      4719      4720
      4718      4716      4719      4721      4718      4716      4719      4722
      4719      4722      4725      4726      4719      4722      4725      4727
      4719      4722      4725      4728      4720      4719      4722      4723
      4720      4719      4722      4724      4720      4719      4722      4725
      4721      4719      4722      4723      4721      4719      4722      4724
      4721      4719      4722      4725      4722      4725      4728      4729
      4722      4725      4728      4730      4722      4725      4728      4731
      4723      4722      4725      4726      4723      4722      4725      4727
      4723      4722      4725      4728      4724      4722      4725      4726
      4724      4722      4725      4727      4724      4722      4725      4728
      4726      4725      4728      4729      4726      4725      4728      4730
      4726      4725      4728      4731      4727      4725      4728      4729
      4727      4725      4728      4730      4727      4725      4728      4731
      4732      4735      4738      4739      4732      4735      4738      4740
      4732      4735      4738      4741      4733      4732      4735      4736
      4733      4732      4735      4737      4733      4732      4735      4738
      4734      4732      4735      4736      4734      4732      4735      4737
      4734      4732      4735      4738      4735      4738      4741      4742
      4735      4738      4741      4743      4735      4738      4741      4744
      4736      4735      4738      4739      4736      4735      4738      4740
      4736      4735      4738      4741      4737      4735      4738      4739
      4737      4735      4738      4740      4737      4735      4738      4741
      4738      4741      4744      4745      4738      4741      4744      4746
      4738      4741      4744      4747      4739      4738      4741      4742
      4739      4738      4741      4743      4739      4738      4741      4744
      4740      4738      4741      4742      4740      4738      4741      4743
      4740      4738      4741      4744      4741      4744      4747      4748
      4741      4744      4747      4749      4741      4744      4747      4750
      4742      4741      4744      4745      4742      4741      4744      4746
      4742      4741      4744      4747      4743      4741      4744      4745
      4743      4741      4744      4746      4743      4741      4744      4747
      4744      4747      4750      4751      4744      4747      4750      4752
      4745      4744      4747      4748      4745      4744      4747      4749
      4745      4744      4747      4750      4746      4744      4747      4748
      4746      4744      4747      4749      4746      4744      4747      4750
      4747      4750      4752      4753      4747      4750      4752      4754
      4748      4747      4750      4751      4748      4747      4750      4752
      4749      4747      4750      4751      4749      4747      4750      4752
      4750      4752      4754      4755      4750      4752      4754      4756
      4750      4752      4754      4757      4751      4750      4752      4753
      4751      4750      4752      4754      4752      4754      4757      4758
      4752      4754      4757      4759      4752      4754      4757      4760
      4753      4752      4754      4755      4753      4752      4754      4756
      4753      4752      4754      4757      4754      4757      4760      4761
      4754      4757      4760      4762      4754      4757      4760      4763
      4755      4754      4757      4758      4755      4754      4757      4759
      4755      4754      4757      4760      4756      4754      4757      4758
      4756      4754      4757      4759      4756      4754      4757      4760
      4757      4760      4763      4764      4757      4760      4763      4765
      4757      4760      4763      4766      4758      4757      4760      4761
      4758      4757      4760      4762      4758      4757      4760      4763
      4759      4757      4760      4761      4759      4757      4760      4762
      4759      4757      4760      4763      4760      4763      4766      4767
      4760      4763      4766      4768      4760      4763      4766      4769
      4761      4760      4763      4764      4761      4760      4763      4765
      4761      4760      4763      4766      4762      4760      4763      4764
      4762      4760      4763      4765      4762      4760      4763      4766
      4763      4766      4769      4770      4763      4766      4769      4771
      4763      4766      4769      4772      4764      4763      4766      4767
      4764      4763      4766      4768      4764      4763      4766      4769
      4765      4763      4766      4767      4765      4763      4766      4768
      4765      4763      4766      4769      4766      4769      4772      4773
      4766      4769      4772      4774      4766      4769      4772      4775
      4767      4766      4769      4770      4767      4766      4769      4771
      4767      4766      4769      4772      4768      4766      4769      4770
      4768      4766      4769      4771      4768      4766      4769      4772
      4769      4772      4775      4776      4769      4772      4775      4777
      4769      4772      4775      4778      4770      4769      4772      4773
      4770      4769      4772      4774      4770      4769      4772      4775
      4771      4769      4772      4773      4771      4769      4772      4774
      4771      4769      4772      4775      4773      4772      4775      4776
      4773      4772      4775      4777      4773      4772      4775      4778
      4774      4772      4775      4776      4774      4772      4775      4777
      4774      4772      4775      4778      4779      4780      4795      4796
      4779      4780      4795      4797      4779      4780      4795      4801
      4780      4779      4783      4784      4780      4779      4783      4785
      4780      4779      4783      4786      4780      4779      4787      4788
      4780      4779      4787      4789      4780      4779      4787      4790
      4780      4779      4791      4792      4780      4779      4791      4793
      4780      4779      4791      4794      4780      4795      4801      4798
      4781      4780      4779      4783      4781      4780      4779      4787
      4781      4780      4779      4791      4781      4780      4795      4796
      4781      4780      4795      4797      4781      4780      4795      4801
      4782      4780      4779      4783      4782      4780      4779      4787
      4782      4780      4779      4791      4782      4780      4795      4796
      4782      4780      4795      4797      4782      4780      4795      4801
      4783      4779      4780      4795      4783      4779      4787      4788
      4783      4779      4787      4789      4783      4779      4787      4790
      4783      4779      4791      4792      4783      4779      4791      4793
      4783      4779      4791      4794      4784      4783      4779      4787
      4784      4783      4779      4791      4785      4783      4779      4787
      4785      4783      4779      4791      4786      4783      4779      4787
      4786      4783      4779      4791      4787      4779      4780      4795
      4787      4779      4791      4792      4787      4779      4791      4793
      4787      4779      4791      4794      4788      4787      4779      4791
      4789      4787      4779      4791      4790      4787      4779      4791
      4791      4779      4780      4795      4795      4801      4798      4799
      4795      4801      4798      4800      4795      4801      4798      4802
      4796      4795      4801      4798      4797      4795      4801      4798
      4798      4802      4803      4804      4798      4802      4803      4805
      4798      4802      4803      4806      4799      4798      4802      4803
      4800      4798      4802      4803      4801      4798      4802      4803
      4802      4803      4806      4807      4802      4803      4806      4808
      4802      4803      4806      4814      4803      4806      4808      4809
      4803      4806      4814      4815      4803      4806      4814      4816
      4803      4806      4814      4817      4804      4803      4806      4807
      4804      4803      4806      4808      4804      4803      4806      4814
      4805      4803      4806      4807      4805      4803      4806      4808
      4805      4803      4806      4814      4806      4808      4809      4810
      4806      4808      4809      4811      4806      4814      4817      4818
      4807      4806      4808      4809      4807      4806      4814      4815
      4807      4806      4814      4816      4807      4806      4814      4817
      4808      4806      4814      4815      4808      4806      4814      4816
      4808      4806      4814      4817      4808      4809      4811      4812
      4808      4809      4811      4813      4808      4809      4811      4823
      4809      4808      4806      4814      4809      4811      4823      4824
      4809      4811      4823      4825      4809      4811      4823      4826
      4810      4809      4811      4812      4810      4809      4811      4813
      4810      4809      4811      4823      4811      4823      4826      4827
      4811      4823      4826      4828      4811      4823      4826      4829
      4812      4811      4823      4824      4812      4811      4823      4825
      4812      4811      4823      4826      4813      4811      4823      4824
      4813      4811      4823      4825      4813      4811      4823      4826
      4814      4817      4818      4819      4814      4817      4818      4820
      4815      4814      4817      4818      4816      4814      4817      4818
      4817      4818      4820      4821      4817      4818      4820      4822
      4817      4818      4820      4870      4818      4820      4870      4871
      4818      4820      4870      4872      4818      4820      4870      4873
      4819      4818      4820      4821      4819      4818      4820      4822
      4819      4818      4820      4870      4820      4870      4873      4874
      4820      4870      4873      4875      4820      4870      4873      4876
      4821      4820      4870      4871      4821      4820      4870      4872
      4821      4820      4870      4873      4822      4820      4870      4871
      4822      4820      4870      4872      4822      4820      4870      4873
      4823      4826      4829      4830      4823      4826      4829      4831
      4823      4826      4829      4832      4824      4823      4826      4827
      4824      4823      4826      4828      4824      4823      4826      4829
      4825      4823      4826      4827      4825      4823      4826      4828
      4825      4823      4826      4829      4826      4829      4832      4833
      4826      4829      4832      4834      4826      4829      4832      4835
      4827      4826      4829      4830      4827      4826      4829      4831
      4827      4826      4829      4832      4828      4826      4829      4830
      4828      4826      4829      4831      4828      4826      4829      4832
      4829      4832      4835      4836      4829      4832      4835      4837
      4829      4832      4835      4838      4830      4829      4832      4833
      4830      4829      4832      4834      4830      4829      4832      4835
      4831      4829      4832      4833      4831      4829      4832      4834
      4831      4829      4832      4835      4832      4835      4838      4839
      4832      4835      4838      4840      4832      4835      4838      4841
      4833      4832      4835      4836      4833      4832      4835      4837
      4833      4832      4835      4838      4834      4832      4835      4836
      4834      4832      4835      4837      4834      4832      4835      4838
      4835      4838      4841      4842      4835      4838      4841      4843
      4836      4835      4838      4839      4836      4835      4838      4840
      4836      4835      4838      4841      4837      4835      4838      4839
      4837      4835      4838      4840      4837      4835      4838      4841
      4838      4841      4843      4844      4838      4841      4843      4845
      4839      4838      4841      4842      4839      4838      4841      4843
      4840      4838      4841      4842      4840      4838      4841      4843
      4841      4843      4845      4846      4841      4843      4845      4847
      4841      4843      4845      4848      4842      4841      4843      4844
      4842      4841      4843      4845      4843      4845      4848      4849
      4843      4845      4848      4850      4843      4845      4848      4851
      4844      4843      4845      4846      4844      4843      4845      4847
      4844      4843      4845      4848      4845      4848      4851      4852
      4845      4848      4851      4853      4845      4848      4851      4854
      4846      4845      4848      4849      4846      4845      4848      4850
      4846      4845      4848      4851      4847      4845      4848      4849
      4847      4845      4848      4850      4847      4845      4848      4851
      4848      4851      4854      4855      4848      4851      4854      4856
      4848      4851      4854      4857      4849      4848      4851      4852
      4849      4848      4851      4853      4849      4848      4851      4854
      4850      4848      4851      4852      4850      4848      4851      4853
      4850      4848      4851      4854      4851      4854      4857      4858
      4851      4854      4857      4859      4851      4854      4857      4860
      4852      4851      4854      4855      4852      4851      4854      4856
      4852      4851      4854      4857      4853      4851      4854      4855
      4853      4851      4854      4856      4853      4851      4854      4857
      4854      4857      4860      4861      4854      4857      4860      4862
      4854      4857      4860      4863      4855      4854      4857      4858
      4855      4854      4857      4859      4855      4854      4857      4860
      4856      4854      4857      4858      4856      4854      4857      4859
      4856      4854      4857      4860      4857      4860      4863      4864
      4857      4860      4863      4865      4857      4860      4863      4866
      4858      4857      4860      4861      4858      4857      4860      4862
      4858      4857      4860      4863      4859      4857      4860      4861
      4859      4857      4860      4862      4859      4857      4860      4863
      4860      4863      4866      4867      4860      4863      4866      4868
      4860      4863      4866      4869      4861      4860      4863      4864
      4861      4860      4863      4865      4861      4860      4863      4866
      4862      4860      4863      4864      4862      4860      4863      4865
      4862      4860      4863      4866      4864      4863      4866      4867
      4864      4863      4866      4868      4864      4863      4866      4869
      4865      4863      4866      4867      4865      4863      4866      4868
      4865      4863      4866      4869      4870      4873      4876      4877
      4870      4873      4876      4878      4870      4873      4876      4879
      4871      4870      4873      4874      4871      4870      4873      4875
      4871      4870      4873      4876      4872      4870      4873      4874
      4872      4870      4873      4875      4872      4870      4873      4876
      4873      4876      4879      4880      4873      4876      4879      4881
      4873      4876      4879      4882      4874      4873      4876      4877
      4874      4873      4876      4878      4874      4873      4876      4879
      4875      4873      4876      4877      4875      4873      4876      4878
      4875      4873      4876      4879      4876      4879      4882      4883
      4876      4879      4882      4884      4876      4879      4882      4885
      4877      4876      4879      4880      4877      4876      4879      4881
      4877      4876      4879      4882      4878      4876      4879      4880
      4878      4876      4879      4881      4878      4876      4879      4882
      4879      4882      4885      4886      4879      4882      4885      4887
      4879      4882      4885      4888      4880      4879      4882      4883
      4880      4879      4882      4884      4880      4879      4882      4885
      4881      4879      4882      4883      4881      4879      4882      4884
      4881      4879      4882      4885      4882      4885      4888      4889
      4882      4885      4888      4890      4883      4882      4885      4886
      4883      4882      4885      4887      4883      4882      4885      4888
      4884      4882      4885      4886      4884      4882      4885      4887
      4884      4882      4885      4888      4885      4888      4890      4891
      4885      4888      4890      4892      4886      4885      4888      4889
      4886      4885      4888      4890      4887      4885      4888      4889
      4887      4885      4888      4890      4888      4890      4892      4893
      4888      4890      4892      4894      4888      4890      4892      4895
      4889      4888      4890      4891      4889      4888      4890      4892
      4890      4892      4895      4896      4890      4892      4895      4897
      4890      4892      4895      4898      4891      4890      4892      4893
      4891      4890      4892      4894      4891      4890      4892      4895
      4892      4895      4898      4899      4892      4895      4898      4900
      4892      4895      4898      4901      4893      4892      4895      4896
      4893      4892      4895      4897      4893      4892      4895      4898
      4894      4892      4895      4896      4894      4892      4895      4897
      4894      4892      4895      4898      4895      4898      4901      4902
      4895      4898      4901      4903      4895      4898      4901      4904
      4896      4895      4898      4899      4896      4895      4898      4900
      4896      4895      4898      4901      4897      4895      4898      4899
      4897      4895      4898      4900      4897      4895      4898      4901
      4898      4901      4904      4905      4898      4901      4904      4906
      4898      4901      4904      4907      4899      4898      4901      4902
      4899      4898      4901      4903      4899      4898      4901      4904
      4900      4898      4901      4902      4900      4898      4901      4903
      4900      4898      4901      4904      4901      4904      4907      4908
      4901      4904      4907      4909      4901      4904      4907      4910
      4902      4901      4904      4905      4902      4901      4904      4906
      4902      4901      4904      4907      4903      4901      4904      4905
      4903      4901      4904      4906      4903      4901      4904      4907
      4904      4907      4910      4911      4904      4907      4910      4912
      4904      4907      4910      4913      4905      4904      4907      4908
      4905      4904      4907      4909      4905      4904      4907      4910
      4906      4904      4907      4908      4906      4904      4907      4909
      4906      4904      4907      4910      4907      4910      4913      4914
      4907      4910      4913      4915      4907      4910      4913      4916
      4908      4907      4910      4911      4908      4907      4910      4912
      4908      4907      4910      4913      4909      4907      4910      4911
      4909      4907      4910      4912      4909      4907      4910      4913
      4911      4910      4913      4914      4911      4910      4913      4915
      4911      4910      4913      4916      4912      4910      4913      4914
      4912      4910      4913      4915      4912      4910      4913      4916
      4917      4918      4933      4934      4917      4918      4933      4935
      4917      4918      4933      4939      4918      4917      4921      4922
      4918      4917      4921      4923      4918      4917      4921      4924
      4918      4917      4925      4926      4918      4917      4925      4927
      4918      4917      4925      4928      4918      4917      4929      4930
      4918      4917      4929      4931      4918      4917      4929      4932
      4918      4933      4939      4936      4919      4918      4917      4921
      4919      4918      4917      4925      4919      4918      4917      4929
      4919      4918      4933      4934      4919      4918      4933      4935
      4919      4918      4933      4939      4920      4918      4917      4921
      4920      4918      4917      4925      4920      4918      4917      4929
      4920      4918      4933      4934      4920      4918      4933      4935
      4920      4918      4933      4939      4921      4917      4918      4933
      4921      4917      4925      4926      4921      4917      4925      4927
      4921      4917      4925      4928      4921      4917      4929      4930
      4921      4917      4929      4931      4921      4917      4929      4932
      4922      4921      4917      4925      4922      4921      4917      4929
      4923      4921      4917      4925      4923      4921      4917      4929
      4924      4921      4917      4925      4924      4921      4917      4929
      4925      4917      4918      4933      4925      4917      4929      4930
      4925      4917      4929      4931      4925      4917      4929      4932
      4926      4925      4917      4929      4927      4925      4917      4929
      4928      4925      4917      4929      4929      4917      4918      4933
      4933      4939      4936      4937      4933      4939      4936      4938
      4933      4939      4936      4940      4934      4933      4939      4936
      4935      4933      4939      4936      4936      4940      4941      4942
      4936      4940      4941      4943      4936      4940      4941      4944
      4937      4936      4940      4941      4938      4936      4940      4941
      4939      4936      4940      4941      4940      4941      4944      4945
      4940      4941      4944      4946      4940      4941      4944      4952
      4941      4944      4946      4947      4941      4944      4952      4953
      4941      4944      4952      4954      4941      4944      4952      4955
      4942      4941      4944      4945      4942      4941      4944      4946
      4942      4941      4944      4952      4943      4941      4944      4945
      4943      4941      4944      4946      4943      4941      4944      4952
      4944      4946      4947      4948      4944      4946      4947      4949
      4944      4952      4955      4956      4945      4944      4946      4947
      4945      4944      4952      4953      4945      4944      4952      4954
      4945      4944      4952      4955      4946      4944      4952      4953
      4946      4944      4952      4954      4946      4944      4952      4955
      4946      4947      4949      4950      4946      4947      4949      4951
      4946      4947      4949      4961      4947      4946      4944      4952
      4947      4949      4961      4962      4947      4949      4961      4963
      4947      4949      4961      4964      4948      4947      4949      4950
      4948      4947      4949      4951      4948      4947      4949      4961
      4949      4961      4964      4965      4949      4961      4964      4966
      4949      4961      4964      4967      4950      4949      4961      4962
      4950      4949      4961      4963      4950      4949      4961      4964
      4951      4949      4961      4962      4951      4949      4961      4963
      4951      4949      4961      4964      4952      4955      4956      4957
      4952      4955      4956      4958      4953      4952      4955      4956
      4954      4952      4955      4956      4955      4956      4958      4959
      4955      4956      4958      4960      4955      4956      4958      5008
      4956      4958      5008      5009      4956      4958      5008      5010
      4956      4958      5008      5011      4957      4956      4958      4959
      4957      4956      4958      4960      4957      4956      4958      5008
      4958      5008      5011      5012      4958      5008      5011      5013
      4958      5008      5011      5014      4959      4958      5008      5009
      4959      4958      5008      5010      4959      4958      5008      5011
      4960      4958      5008      5009      4960      4958      5008      5010
      4960      4958      5008      5011      4961      4964      4967      4968
      4961      4964      4967      4969      4961      4964      4967      4970
      4962      4961      4964      4965      4962      4961      4964      4966
      4962      4961      4964      4967      4963      4961      4964      4965
      4963      4961      4964      4966      4963      4961      4964      4967
      4964      4967      4970      4971      4964      4967      4970      4972
      4964      4967      4970      4973      4965      4964      4967      4968
      4965      4964      4967      4969      4965      4964      4967      4970
      4966      4964      4967      4968      4966      4964      4967      4969
      4966      4964      4967      4970      4967      4970      4973      4974
      4967      4970      4973      4975      4967      4970      4973      4976
      4968      4967      4970      4971      4968      4967      4970      4972
      4968      4967      4970      4973      4969      4967      4970      4971
      4969      4967      4970      4972      4969      4967      4970      4973
      4970      4973      4976      4977      4970      4973      4976      4978
      4970      4973      4976      4979      4971      4970      4973      4974
      4971      4970      4973      4975      4971      4970      4973      4976
      4972      4970      4973      4974      4972      4970      4973      4975
      4972      4970      4973      4976      4973      4976      4979      4980
      4973      4976      4979      4981      4974      4973      4976      4977
      4974      4973      4976      4978      4974      4973      4976      4979
      4975      4973      4976      4977      4975      4973      4976      4978
      4975      4973      4976      4979      4976      4979      4981      4982
      4976      4979      4981      4983      4977      4976      4979      4980
      4977      4976      4979      4981      4978      4976      4979      4980
      4978      4976      4979      4981      4979      4981      4983      4984
      4979      4981      4983      4985      4979      4981      4983      4986
      4980      4979      4981      4982      4980      4979      4981      4983
      4981      4983      4986      4987      4981      4983      4986      4988
      4981      4983      4986      4989      4982      4981      4983      4984
      4982      4981      4983      4985      4982      4981      4983      4986
      4983      4986      4989      4990      4983      4986      4989      4991
      4983      4986      4989      4992      4984      4983      4986      4987
      4984      4983      4986      4988      4984      4983      4986      4989
      4985      4983      4986      4987      4985      4983      4986      4988
      4985      4983      4986      4989      4986      4989      4992      4993
      4986      4989      4992      4994      4986      4989      4992      4995
      4987      4986      4989      4990      4987      4986      4989      4991
      4987      4986      4989      4992      4988      4986      4989      4990
      4988      4986      4989      4991      4988      4986      4989      4992
      4989      4992      4995      4996      4989      4992      4995      4997
      4989      4992      4995      4998      4990      4989      4992      4993
      4990      4989      4992      4994      4990      4989      4992      4995
      4991      4989      4992      4993      4991      4989      4992      4994
      4991      4989      4992      4995      4992      4995      4998      4999
      4992      4995      4998      5000      4992      4995      4998      5001
      4993      4992      4995      4996      4993      4992      4995      4997
      4993      4992      4995      4998      4994      4992      4995      4996
      4994      4992      4995      4997      4994      4992      4995      4998
      4995      4998      5001      5002      4995      4998      5001      5003
      4995      4998      5001      5004      4996      4995      4998      4999
      4996      4995      4998      5000      4996      4995      4998      5001
      4997      4995      4998      4999      4997      4995      4998      5000
      4997      4995      4998      5001      4998      5001      5004      5005
      4998      5001      5004      5006      4998      5001      5004      5007
      4999      4998      5001      5002      4999      4998      5001      5003
      4999      4998      5001      5004      5000      4998      5001      5002
      5000      4998      5001      5003      5000      4998      5001      5004
      5002      5001      5004      5005      5002      5001      5004      5006
      5002      5001      5004      5007      5003      5001      5004      5005
      5003      5001      5004      5006      5003      5001      5004      5007
      5008      5011      5014      5015      5008      5011      5014      5016
      5008      5011      5014      5017      5009      5008      5011      5012
      5009      5008      5011      5013      5009      5008      5011      5014
      5010      5008      5011      5012      5010      5008      5011      5013
      5010      5008      5011      5014      5011      5014      5017      5018
      5011      5014      5017      5019      5011      5014      5017      5020
      5012      5011      5014      5015      5012      5011      5014      5016
      5012      5011      5014      5017      5013      5011      5014      5015
      5013      5011      5014      5016      5013      5011      5014      5017
      5014      5017      5020      5021      5014      5017      5020      5022
      5014      5017      5020      5023      5015      5014      5017      5018
      5015      5014      5017      5019      5015      5014      5017      5020
      5016      5014      5017      5018      5016      5014      5017      5019
      5016      5014      5017      5020      5017      5020      5023      5024
      5017      5020      5023      5025      5017      5020      5023      5026
      5018      5017      5020      5021      5018      5017      5020      5022
      5018      5017      5020      5023      5019      5017      5020      5021
      5019      5017      5020      5022      5019      5017      5020      5023
      5020      5023      5026      5027      5020      5023      5026      5028
      5021      5020      5023      5024      5021      5020      5023      5025
      5021      5020      5023      5026      5022      5020      5023      5024
      5022      5020      5023      5025      5022      5020      5023      5026
      5023      5026      5028      5029      5023      5026      5028      5030
      5024      5023      5026      5027      5024      5023      5026      5028
      5025      5023      5026      5027      5025      5023      5026      5028
      5026      5028      5030      5031      5026      5028      5030      5032
      5026      5028      5030      5033      5027      5026      5028      5029
      5027      5026      5028      5030      5028      5030      5033      5034
      5028      5030      5033      5035      5028      5030      5033      5036
      5029      5028      5030      5031      5029      5028      5030      5032
      5029      5028      5030      5033      5030      5033      5036      5037
      5030      5033      5036      5038      5030      5033      5036      5039
      5031      5030      5033      5034      5031      5030      5033      5035
      5031      5030      5033      5036      5032      5030      5033      5034
      5032      5030      5033      5035      5032      5030      5033      5036
      5033      5036      5039      5040      5033      5036      5039      5041
      5033      5036      5039      5042      5034      5033      5036      5037
      5034      5033      5036      5038      5034      5033      5036      5039
      5035      5033      5036      5037      5035      5033      5036      5038
      5035      5033      5036      5039      5036      5039      5042      5043
      5036      5039      5042      5044      5036      5039      5042      5045
      5037      5036      5039      5040      5037      5036      5039      5041
      5037      5036      5039      5042      5038      5036      5039      5040
      5038      5036      5039      5041      5038      5036      5039      5042
      5039      5042      5045      5046      5039      5042      5045      5047
      5039      5042      5045      5048      5040      5039      5042      5043
      5040      5039      5042      5044      5040      5039      5042      5045
      5041      5039      5042      5043      5041      5039      5042      5044
      5041      5039      5042      5045      5042      5045      5048      5049
      5042      5045      5048      5050      5042      5045      5048      5051
      5043      5042      5045      5046      5043      5042      5045      5047
      5043      5042      5045      5048      5044      5042      5045      5046
      5044      5042      5045      5047      5044      5042      5045      5048
      5045      5048      5051      5052      5045      5048      5051      5053
      5045      5048      5051      5054      5046      5045      5048      5049
      5046      5045      5048      5050      5046      5045      5048      5051
      5047      5045      5048      5049      5047      5045      5048      5050
      5047      5045      5048      5051      5049      5048      5051      5052
      5049      5048      5051      5053      5049      5048      5051      5054
      5050      5048      5051      5052      5050      5048      5051      5053
      5050      5048      5051      5054      5055      5056      5071      5072
      5055      5056      5071      5073      5055      5056      5071      5077
      5056      5055      5059      5060      5056      5055      5059      5061
      5056      5055      5059      5062      5056      5055      5063      5064
      5056      5055      5063      5065      5056      5055      5063      5066
      5056      5055      5067      5068      5056      5055      5067      5069
      5056      5055      5067      5070      5056      5071      5077      5074
      5057      5056      5055      5059      5057      5056      5055      5063
      5057      5056      5055      5067      5057      5056      5071      5072
      5057      5056      5071      5073      5057      5056      5071      5077
      5058      5056      5055      5059      5058      5056      5055      5063
      5058      5056      5055      5067      5058      5056      5071      5072
      5058      5056      5071      5073      5058      5056      5071      5077
      5059      5055      5056      5071      5059      5055      5063      5064
      5059      5055      5063      5065      5059      5055      5063      5066
      5059      5055      5067      5068      5059      5055      5067      5069
      5059      5055      5067      5070      5060      5059      5055      5063
      5060      5059      5055      5067      5061      5059      5055      5063
      5061      5059      5055      5067      5062      5059      5055      5063
      5062      5059      5055      5067      5063      5055      5056      5071
      5063      5055      5067      5068      5063      5055      5067      5069
      5063      5055      5067      5070      5064      5063      5055      5067
      5065      5063      5055      5067      5066      5063      5055      5067
      5067      5055      5056      5071      5071      5077      5074      5075
      5071      5077      5074      5076      5071      5077      5074      5078
      5072      5071      5077      5074      5073      5071      5077      5074
      5074      5078      5079      5080      5074      5078      5079      5081
      5074      5078      5079      5082      5075      5074      5078      5079
      5076      5074      5078      5079      5077      5074      5078      5079
      5078      5079      5082      5083      5078      5079      5082      5084
      5078      5079      5082      5090      5079      5082      5084      5085
      5079      5082      5090      5091      5079      5082      5090      5092
      5079      5082      5090      5093      5080      5079      5082      5083
      5080      5079      5082      5084      5080      5079      5082      5090
      5081      5079      5082      5083      5081      5079      5082      5084
      5081      5079      5082      5090      5082      5084      5085      5086
      5082      5084      5085      5087      5082      5090      5093      5094
      5083      5082      5084      5085      5083      5082      5090      5091
      5083      5082      5090      5092      5083      5082      5090      5093
      5084      5082      5090      5091      5084      5082      5090      5092
      5084      5082      5090      5093      5084      5085      5087      5088
      5084      5085      5087      5089      5084      5085      5087      5099
      5085      5084      5082      5090      5085      5087      5099      5100
      5085      5087      5099      5101      5085      5087      5099      5102
      5086      5085      5087      5088      5086      5085      5087      5089
      5086      5085      5087      5099      5087      5099      5102      5103
      5087      5099      5102      5104      5087      5099      5102      5105
      5088      5087      5099      5100      5088      5087      5099      5101
      5088      5087      5099      5102      5089      5087      5099      5100
      5089      5087      5099      5101      5089      5087      5099      5102
      5090      5093      5094      5095      5090      5093      5094      5096
      5091      5090      5093      5094      5092      5090      5093      5094
      5093      5094      5096      5097      5093      5094      5096      5098
      5093      5094      5096      5146      5094      5096      5146      5147
      5094      5096      5146      5148      5094      5096      5146      5149
      5095      5094      5096      5097      5095      5094      5096      5098
      5095      5094      5096      5146      5096      5146      5149      5150
      5096      5146      5149      5151      5096      5146      5149      5152
      5097      5096      5146      5147      5097      5096      5146      5148
      5097      5096      5146      5149      5098      5096      5146      5147
      5098      5096      5146      5148      5098      5096      5146      5149
      5099      5102      5105      5106      5099      5102      5105      5107
      5099      5102      5105      5108      5100      5099      5102      5103
      5100      5099      5102      5104      5100      5099      5102      5105
      5101      5099      5102      5103      5101      5099      5102      5104
      5101      5099      5102      5105      5102      5105      5108      5109
      5102      5105      5108      5110      5102      5105      5108      5111
      5103      5102      5105      5106      5103      5102      5105      5107
      5103      5102      5105      5108      5104      5102      5105      5106
      5104      5102      5105      5107      5104      5102      5105      5108
      5105      5108      5111      5112      5105      5108      5111      5113
      5105      5108      5111      5114      5106      5105      5108      5109
      5106      5105      5108      5110      5106      5105      5108      5111
      5107      5105      5108      5109      5107      5105      5108      5110
      5107      5105      5108      5111      5108      5111      5114      5115
      5108      5111      5114      5116      5108      5111      5114      5117
      5109      5108      5111      5112      5109      5108      5111      5113
      5109      5108      5111      5114      5110      5108      5111      5112
      5110      5108      5111      5113      5110      5108      5111      5114
      5111      5114      5117      5118      5111      5114      5117      5119
      5112      5111      5114      5115      5112      5111      5114      5116
      5112      5111      5114      5117      5113      5111      5114      5115
      5113      5111      5114      5116      5113      5111      5114      5117
      5114      5117      5119      5120      5114      5117      5119      5121
      5115      5114      5117      5118      5115      5114      5117      5119
      5116      5114      5117      5118      5116      5114      5117      5119
      5117      5119      5121      5122      5117      5119      5121      5123
      5117      5119      5121      5124      5118      5117      5119      5120
      5118      5117      5119      5121      5119      5121      5124      5125
      5119      5121      5124      5126      5119      5121      5124      5127
      5120      5119      5121      5122      5120      5119      5121      5123
      5120      5119      5121      5124      5121      5124      5127      5128
      5121      5124      5127      5129      5121      5124      5127      5130
      5122      5121      5124      5125      5122      5121      5124      5126
      5122      5121      5124      5127      5123      5121      5124      5125
      5123      5121      5124      5126      5123      5121      5124      5127
      5124      5127      5130      5131      5124      5127      5130      5132
      5124      5127      5130      5133      5125      5124      5127      5128
      5125      5124      5127      5129      5125      5124      5127      5130
      5126      5124      5127      5128      5126      5124      5127      5129
      5126      5124      5127      5130      5127      5130      5133      5134
      5127      5130      5133      5135      5127      5130      5133      5136
      5128      5127      5130      5131      5128      5127      5130      5132
      5128      5127      5130      5133      5129      5127      5130      5131
      5129      5127      5130      5132      5129      5127      5130      5133
      5130      5133      5136      5137      5130      5133      5136      5138
      5130      5133      5136      5139      5131      5130      5133      5134
      5131      5130      5133      5135      5131      5130      5133      5136
      5132      5130      5133      5134      5132      5130      5133      5135
      5132      5130      5133      5136      5133      5136      5139      5140
      5133      5136      5139      5141      5133      5136      5139      5142
      5134      5133      5136      5137      5134      5133      5136      5138
      5134      5133      5136      5139      5135      5133      5136      5137
      5135      5133      5136      5138      5135      5133      5136      5139
      5136      5139      5142      5143      5136      5139      5142      5144
      5136      5139      5142      5145      5137      5136      5139      5140
      5137      5136      5139      5141      5137      5136      5139      5142
      5138      5136      5139      5140      5138      5136      5139      5141
      5138      5136      5139      5142      5140      5139      5142      5143
      5140      5139      5142      5144      5140      5139      5142      5145
      5141      5139      5142      5143      5141      5139      5142      5144
      5141      5139      5142      5145      5146      5149      5152      5153
      5146      5149      5152      5154      5146      5149      5152      5155
      5147      5146      5149      5150      5147      5146      5149      5151
      5147      5146      5149      5152      5148      5146      5149      5150
      5148      5146      5149      5151      5148      5146      5149      5152
      5149      5152      5155      5156      5149      5152      5155      5157
      5149      5152      5155      5158      5150      5149      5152      5153
      5150      5149      5152      5154      5150      5149      5152      5155
      5151      5149      5152      5153      5151      5149      5152      5154
      5151      5149      5152      5155      5152      5155      5158      5159
      5152      5155      5158      5160      5152      5155      5158      5161
      5153      5152      5155      5156      5153      5152      5155      5157
      5153      5152      5155      5158      5154      5152      5155      5156
      5154      5152      5155      5157      5154      5152      5155      5158
      5155      5158      5161      5162      5155      5158      5161      5163
      5155      5158      5161      5164      5156      5155      5158      5159
      5156      5155      5158      5160      5156      5155      5158      5161
      5157      5155      5158      5159      5157      5155      5158      5160
      5157      5155      5158      5161      5158      5161      5164      5165
      5158      5161      5164      5166      5159      5158      5161      5162
      5159      5158      5161      5163      5159      5158      5161      5164
      5160      5158      5161      5162      5160      5158      5161      5163
      5160      5158      5161      5164      5161      5164      5166      5167
      5161      5164      5166      5168      5162      5161      5164      5165
      5162      5161      5164      5166      5163      5161      5164      5165
      5163      5161      5164      5166      5164      5166      5168      5169
      5164      5166      5168      5170      5164      5166      5168      5171
      5165      5164      5166      5167      5165      5164      5166      5168
      5166      5168      5171      5172      5166      5168      5171      5173
      5166      5168      5171      5174      5167      5166      5168      5169
      5167      5166      5168      5170      5167      5166      5168      5171
      5168      5171      5174      5175      5168      5171      5174      5176
      5168      5171      5174      5177      5169      5168      5171      5172
      5169      5168      5171      5173      5169      5168      5171      5174
      5170      5168      5171      5172      5170      5168      5171      5173
      5170      5168      5171      5174      5171      5174      5177      5178
      5171      5174      5177      5179      5171      5174      5177      5180
      5172      5171      5174      5175      5172      5171      5174      5176
      5172      5171      5174      5177      5173      5171      5174      5175
      5173      5171      5174      5176      5173      5171      5174      5177
      5174      5177      5180      5181      5174      5177      5180      5182
      5174      5177      5180      5183      5175      5174      5177      5178
      5175      5174      5177      5179      5175      5174      5177      5180
      5176      5174      5177      5178      5176      5174      5177      5179
      5176      5174      5177      5180      5177      5180      5183      5184
      5177      5180      5183      5185      5177      5180      5183      5186
      5178      5177      5180      5181      5178      5177      5180      5182
      5178      5177      5180      5183      5179      5177      5180      5181
      5179      5177      5180      5182      5179      5177      5180      5183
      5180      5183      5186      5187      5180      5183      5186      5188
      5180      5183      5186      5189      5181      5180      5183      5184
      5181      5180      5183      5185      5181      5180      5183      5186
      5182      5180      5183      5184      5182      5180      5183      5185
      5182      5180      5183      5186      5183      5186      5189      5190
      5183      5186      5189      5191      5183      5186      5189      5192
      5184      5183      5186      5187      5184      5183      5186      5188
      5184      5183      5186      5189      5185      5183      5186      5187
      5185      5183      5186      5188      5185      5183      5186      5189
      5187      5186      5189      5190      5187      5186      5189      5191
      5187      5186      5189      5192      5188      5186      5189      5190
      5188      5186      5189      5191      5188      5186      5189      5192
      5193      5194      5209      5210      5193      5194      5209      5211
      5193      5194      5209      5215      5194      5193      5197      5198
      5194      5193      5197      5199      5194      5193      5197      5200
      5194      5193      5201      5202      5194      5193      5201      5203
      5194      5193      5201      5204      5194      5193      5205      5206
      5194      5193      5205      5207      5194      5193      5205      5208
      5194      5209      5215      5212      5195      5194      5193      5197
      5195      5194      5193      5201      5195      5194      5193      5205
      5195      5194      5209      5210      5195      5194      5209      5211
      5195      5194      5209      5215      5196      5194      5193      5197
      5196      5194      5193      5201      5196      5194      5193      5205
      5196      5194      5209      5210      5196      5194      5209      5211
      5196      5194      5209      5215      5197      5193      5194      5209
      5197      5193      5201      5202      5197      5193      5201      5203
      5197      5193      5201      5204      5197      5193      5205      5206
      5197      5193      5205      5207      5197      5193      5205      5208
      5198      5197      5193      5201      5198      5197      5193      5205
      5199      5197      5193      5201      5199      5197      5193      5205
      5200      5197      5193      5201      5200      5197      5193      5205
      5201      5193      5194      5209      5201      5193      5205      5206
      5201      5193      5205      5207      5201      5193      5205      5208
      5202      5201      5193      5205      5203      5201      5193      5205
      5204      5201      5193      5205      5205      5193      5194      5209
      5209      5215      5212      5213      5209      5215      5212      5214
      5209      5215      5212      5216      5210      5209      5215      5212
      5211      5209      5215      5212      5212      5216      5217      5218
      5212      5216      5217      5219      5212      5216      5217      5220
      5213      5212      5216      5217      5214      5212      5216      5217
      5215      5212      5216      5217      5216      5217      5220      5221
      5216      5217      5220      5222      5216      5217      5220      5228
      5217      5220      5222      5223      5217      5220      5228      5229
      5217      5220      5228      5230      5217      5220      5228      5231
      5218      5217      5220      5221      5218      5217      5220      5222
      5218      5217      5220      5228      5219      5217      5220      5221
      5219      5217      5220      5222      5219      5217      5220      5228
      5220      5222      5223      5224      5220      5222      5223      5225
      5220      5228      5231      5232      5221      5220      5222      5223
      5221      5220      5228      5229      5221      5220      5228      5230
      5221      5220      5228      5231      5222      5220      5228      5229
      5222      5220      5228      5230      5222      5220      5228      5231
      5222      5223      5225      5226      5222      5223      5225      5227
      5222      5223      5225      5237      5223      5222      5220      5228
      5223      5225      5237      5238      5223      5225      5237      5239
      5223      5225      5237      5240      5224      5223      5225      5226
      5224      5223      5225      5227      5224      5223      5225      5237
      5225      5237      5240      5241      5225      5237      5240      5242
      5225      5237      5240      5243      5226      5225      5237      5238
      5226      5225      5237      5239      5226      5225      5237      5240
      5227      5225      5237      5238      5227      5225      5237      5239
      5227      5225      5237      5240      5228      5231      5232      5233
      5228      5231      5232      5234      5229      5228      5231      5232
      5230      5228      5231      5232      5231      5232      5234      5235
      5231      5232      5234      5236      5231      5232      5234      5284
      5232      5234      5284      5285      5232      5234      5284      5286
      5232      5234      5284      5287      5233      5232      5234      5235
      5233      5232      5234      5236      5233      5232      5234      5284
      5234      5284      5287      5288      5234      5284      5287      5289
      5234      5284      5287      5290      5235      5234      5284      5285
      5235      5234      5284      5286      5235      5234      5284      5287
      5236      5234      5284      5285      5236      5234      5284      5286
      5236      5234      5284      5287      5237      5240      5243      5244
      5237      5240      5243      5245      5237      5240      5243      5246
      5238      5237      5240      5241      5238      5237      5240      5242
      5238      5237      5240      5243      5239      5237      5240      5241
      5239      5237      5240      5242      5239      5237      5240      5243
      5240      5243      5246      5247      5240      5243      5246      5248
      5240      5243      5246      5249      5241      5240      5243      5244
      5241      5240      5243      5245      5241      5240      5243      5246
      5242      5240      5243      5244      5242      5240      5243      5245
      5242      5240      5243      5246      5243      5246      5249      5250
      5243      5246      5249      5251      5243      5246      5249      5252
      5244      5243      5246      5247      5244      5243      5246      5248
      5244      5243      5246      5249      5245      5243      5246      5247
      5245      5243      5246      5248      5245      5243      5246      5249
      5246      5249      5252      5253      5246      5249      5252      5254
      5246      5249      5252      5255      5247      5246      5249      5250
      5247      5246      5249      5251      5247      5246      5249      5252
      5248      5246      5249      5250      5248      5246      5249      5251
      5248      5246      5249      5252      5249      5252      5255      5256
      5249      5252      5255      5257      5250      5249      5252      5253
      5250      5249      5252      5254      5250      5249      5252      5255
      5251      5249      5252      5253      5251      5249      5252      5254
      5251      5249      5252      5255      5252      5255      5257      5258
      5252      5255      5257      5259      5253      5252      5255      5256
      5253      5252      5255      5257      5254      5252      5255      5256
      5254      5252      5255      5257      5255      5257      5259      5260
      5255      5257      5259      5261      5255      5257      5259      5262
      5256      5255      5257      5258      5256      5255      5257      5259
      5257      5259      5262      5263      5257      5259      5262      5264
      5257      5259      5262      5265      5258      5257      5259      5260
      5258      5257      5259      5261      5258      5257      5259      5262
      5259      5262      5265      5266      5259      5262      5265      5267
      5259      5262      5265      5268      5260      5259      5262      5263
      5260      5259      5262      5264      5260      5259      5262      5265
      5261      5259      5262      5263      5261      5259      5262      5264
      5261      5259      5262      5265      5262      5265      5268      5269
      5262      5265      5268      5270      5262      5265      5268      5271
      5263      5262      5265      5266      5263      5262      5265      5267
      5263      5262      5265      5268      5264      5262      5265      5266
      5264      5262      5265      5267      5264      5262      5265      5268
      5265      5268      5271      5272      5265      5268      5271      5273
      5265      5268      5271      5274      5266      5265      5268      5269
      5266      5265      5268      5270      5266      5265      5268      5271
      5267      5265      5268      5269      5267      5265      5268      5270
      5267      5265      5268      5271      5268      5271      5274      5275
      5268      5271      5274      5276      5268      5271      5274      5277
      5269      5268      5271      5272      5269      5268      5271      5273
      5269      5268      5271      5274      5270      5268      5271      5272
      5270      5268      5271      5273      5270      5268      5271      5274
      5271      5274      5277      5278      5271      5274      5277      5279
      5271      5274      5277      5280      5272      5271      5274      5275
      5272      5271      5274      5276      5272      5271      5274      5277
      5273      5271      5274      5275      5273      5271      5274      5276
      5273      5271      5274      5277      5274      5277      5280      5281
      5274      5277      5280      5282      5274      5277      5280      5283
      5275      5274      5277      5278      5275      5274      5277      5279
      5275      5274      5277      5280      5276      5274      5277      5278
      5276      5274      5277      5279      5276      5274      5277      5280
      5278      5277      5280      5281      5278      5277      5280      5282
      5278      5277      5280      5283      5279      5277      5280      5281
      5279      5277      5280      5282      5279      5277      5280      5283
      5284      5287      5290      5291      5284      5287      5290      5292
      5284      5287      5290      5293      5285      5284      5287      5288
      5285      5284      5287      5289      5285      5284      5287      5290
      5286      5284      5287      5288      5286      5284      5287      5289
      5286      5284      5287      5290      5287      5290      5293      5294
      5287      5290      5293      5295      5287      5290      5293      5296
      5288      5287      5290      5291      5288      5287      5290      5292
      5288      5287      5290      5293      5289      5287      5290      5291
      5289      5287      5290      5292      5289      5287      5290      5293
      5290      5293      5296      5297      5290      5293      5296      5298
      5290      5293      5296      5299      5291      5290      5293      5294
      5291      5290      5293      5295      5291      5290      5293      5296
      5292      5290      5293      5294      5292      5290      5293      5295
      5292      5290      5293      5296      5293      5296      5299      5300
      5293      5296      5299      5301      5293      5296      5299      5302
      5294      5293      5296      5297      5294      5293      5296      5298
      5294      5293      5296      5299      5295      5293      5296      5297
      5295      5293      5296      5298      5295      5293      5296      5299
      5296      5299      5302      5303      5296      5299      5302      5304
      5297      5296      5299      5300      5297      5296      5299      5301
      5297      5296      5299      5302      5298      5296      5299      5300
      5298      5296      5299      5301      5298      5296      5299      5302
      5299      5302      5304      5305      5299      5302      5304      5306
      5300      5299      5302      5303      5300      5299      5302      5304
      5301      5299      5302      5303      5301      5299      5302      5304
      5302      5304      5306      5307      5302      5304      5306      5308
      5302      5304      5306      5309      5303      5302      5304      5305
      5303      5302      5304      5306      5304      5306      5309      5310
      5304      5306      5309      5311      5304      5306      5309      5312
      5305      5304      5306      5307      5305      5304      5306      5308
      5305      5304      5306      5309      5306      5309      5312      5313
      5306      5309      5312      5314      5306      5309      5312      5315
      5307      5306      5309      5310      5307      5306      5309      5311
      5307      5306      5309      5312      5308      5306      5309      5310
      5308      5306      5309      5311      5308      5306      5309      5312
      5309      5312      5315      5316      5309      5312      5315      5317
      5309      5312      5315      5318      5310      5309      5312      5313
      5310      5309      5312      5314      5310      5309      5312      5315
      5311      5309      5312      5313      5311      5309      5312      5314
      5311      5309      5312      5315      5312      5315      5318      5319
      5312      5315      5318      5320      5312      5315      5318      5321
      5313      5312      5315      5316      5313      5312      5315      5317
      5313      5312      5315      5318      5314      5312      5315      5316
      5314      5312      5315      5317      5314      5312      5315      5318
      5315      5318      5321      5322      5315      5318      5321      5323
      5315      5318      5321      5324      5316      5315      5318      5319
      5316      5315      5318      5320      5316      5315      5318      5321
      5317      5315      5318      5319      5317      5315      5318      5320
      5317      5315      5318      5321      5318      5321      5324      5325
      5318      5321      5324      5326      5318      5321      5324      5327
      5319      5318      5321      5322      5319      5318      5321      5323
      5319      5318      5321      5324      5320      5318      5321      5322
      5320      5318      5321      5323      5320      5318      5321      5324
      5321      5324      5327      5328      5321      5324      5327      5329
      5321      5324      5327      5330      5322      5321      5324      5325
      5322      5321      5324      5326      5322      5321      5324      5327
      5323      5321      5324      5325      5323      5321      5324      5326
      5323      5321      5324      5327      5325      5324      5327      5328
      5325      5324      5327      5329      5325      5324      5327      5330
      5326      5324      5327      5328      5326      5324      5327      5329
      5326      5324      5327      5330      5331      5332      5347      5348
      5331      5332      5347      5349      5331      5332      5347      5353
      5332      5331      5335      5336      5332      5331      5335      5337
      5332      5331      5335      5338      5332      5331      5339      5340
      5332      5331      5339      5341      5332      5331      5339      5342
      5332      5331      5343      5344      5332      5331      5343      5345
      5332      5331      5343      5346      5332      5347      5353      5350
      5333      5332      5331      5335      5333      5332      5331      5339
      5333      5332      5331      5343      5333      5332      5347      5348
      5333      5332      5347      5349      5333      5332      5347      5353
      5334      5332      5331      5335      5334      5332      5331      5339
      5334      5332      5331      5343      5334      5332      5347      5348
      5334      5332      5347      5349      5334      5332      5347      5353
      5335      5331      5332      5347      5335      5331      5339      5340
      5335      5331      5339      5341      5335      5331      5339      5342
      5335      5331      5343      5344      5335      5331      5343      5345
      5335      5331      5343      5346      5336      5335      5331      5339
      5336      5335      5331      5343      5337      5335      5331      5339
      5337      5335      5331      5343      5338      5335      5331      5339
      5338      5335      5331      5343      5339      5331      5332      5347
      5339      5331      5343      5344      5339      5331      5343      5345
      5339      5331      5343      5346      5340      5339      5331      5343
      5341      5339      5331      5343      5342      5339      5331      5343
      5343      5331      5332      5347      5347      5353      5350      5351
      5347      5353      5350      5352      5347      5353      5350      5354
      5348      5347      5353      5350      5349      5347      5353      5350
      5350      5354      5355      5356      5350      5354      5355      5357
      5350      5354      5355      5358      5351      5350      5354      5355
      5352      5350      5354      5355      5353      5350      5354      5355
      5354      5355      5358      5359      5354      5355      5358      5360
      5354      5355      5358      5366      5355      5358      5360      5361
      5355      5358      5366      5367      5355      5358      5366      5368
      5355      5358      5366      5369      5356      5355      5358      5359
      5356      5355      5358      5360      5356      5355      5358      5366
      5357      5355      5358      5359      5357      5355      5358      5360
      5357      5355      5358      5366      5358      5360      5361      5362
      5358      5360      5361      5363      5358      5366      5369      5370
      5359      5358      5360      5361      5359      5358      5366      5367
      5359      5358      5366      5368      5359      5358      5366      5369
      5360      5358      5366      5367      5360      5358      5366      5368
      5360      5358      5366      5369      5360      5361      5363      5364
      5360      5361      5363      5365      5360      5361      5363      5375
      5361      5360      5358      5366      5361      5363      5375      5376
      5361      5363      5375      5377      5361      5363      5375      5378
      5362      5361      5363      5364      5362      5361      5363      5365
      5362      5361      5363      5375      5363      5375      5378      5379
      5363      5375      5378      5380      5363      5375      5378      5381
      5364      5363      5375      5376      5364      5363      5375      5377
      5364      5363      5375      5378      5365      5363      5375      5376
      5365      5363      5375      5377      5365      5363      5375      5378
      5366      5369      5370      5371      5366      5369      5370      5372
      5367      5366      5369      5370      5368      5366      5369      5370
      5369      5370      5372      5373      5369      5370      5372      5374
      5369      5370      5372      5422      5370      5372      5422      5423
      5370      5372      5422      5424      5370      5372      5422      5425
      5371      5370      5372      5373      5371      5370      5372      5374
      5371      5370      5372      5422      5372      5422      5425      5426
      5372      5422      5425      5427      5372      5422      5425      5428
      5373      5372      5422      5423      5373      5372      5422      5424
      5373      5372      5422      5425      5374      5372      5422      5423
      5374      5372      5422      5424      5374      5372      5422      5425
      5375      5378      5381      5382      5375      5378      5381      5383
      5375      5378      5381      5384      5376      5375      5378      5379
      5376      5375      5378      5380      5376      5375      5378      5381
      5377      5375      5378      5379      5377      5375      5378      5380
      5377      5375      5378      5381      5378      5381      5384      5385
      5378      5381      5384      5386      5378      5381      5384      5387
      5379      5378      5381      5382      5379      5378      5381      5383
      5379      5378      5381      5384      5380      5378      5381      5382
      5380      5378      5381      5383      5380      5378      5381      5384
      5381      5384      5387      5388      5381      5384      5387      5389
      5381      5384      5387      5390      5382      5381      5384      5385
      5382      5381      5384      5386      5382      5381      5384      5387
      5383      5381      5384      5385      5383      5381      5384      5386
      5383      5381      5384      5387      5384      5387      5390      5391
      5384      5387      5390      5392      5384      5387      5390      5393
      5385      5384      5387      5388      5385      5384      5387      5389
      5385      5384      5387      5390      5386      5384      5387      5388
      5386      5384      5387      5389      5386      5384      5387      5390
      5387      5390      5393      5394      5387      5390      5393      5395
      5388      5387      5390      5391      5388      5387      5390      5392
      5388      5387      5390      5393      5389      5387      5390      5391
      5389      5387      5390      5392      5389      5387      5390      5393
      5390      5393      5395      5396      5390      5393      5395      5397
      5391      5390      5393      5394      5391      5390      5393      5395
      5392      5390      5393      5394      5392      5390      5393      5395
      5393      5395      5397      5398      5393      5395      5397      5399
      5393      5395      5397      5400      5394      5393      5395      5396
      5394      5393      5395      5397      5395      5397      5400      5401
      5395      5397      5400      5402      5395      5397      5400      5403
      5396      5395      5397      5398      5396      5395      5397      5399
      5396      5395      5397      5400      5397      5400      5403      5404
      5397      5400      5403      5405      5397      5400      5403      5406
      5398      5397      5400      5401      5398      5397      5400      5402
      5398      5397      5400      5403      5399      5397      5400      5401
      5399      5397      5400      5402      5399      5397      5400      5403
      5400      5403      5406      5407      5400      5403      5406      5408
      5400      5403      5406      5409      5401      5400      5403      5404
      5401      5400      5403      5405      5401      5400      5403      5406
      5402      5400      5403      5404      5402      5400      5403      5405
      5402      5400      5403      5406      5403      5406      5409      5410
      5403      5406      5409      5411      5403      5406      5409      5412
      5404      5403      5406      5407      5404      5403      5406      5408
      5404      5403      5406      5409      5405      5403      5406      5407
      5405      5403      5406      5408      5405      5403      5406      5409
      5406      5409      5412      5413      5406      5409      5412      5414
      5406      5409      5412      5415      5407      5406      5409      5410
      5407      5406      5409      5411      5407      5406      5409      5412
      5408      5406      5409      5410      5408      5406      5409      5411
      5408      5406      5409      5412      5409      5412      5415      5416
      5409      5412      5415      5417      5409      5412      5415      5418
      5410      5409      5412      5413      5410      5409      5412      5414
      5410      5409      5412      5415      5411      5409      5412      5413
      5411      5409      5412      5414      5411      5409      5412      5415
      5412      5415      5418      5419      5412      5415      5418      5420
      5412      5415      5418      5421      5413      5412      5415      5416
      5413      5412      5415      5417      5413      5412      5415      5418
      5414      5412      5415      5416      5414      5412      5415      5417
      5414      5412      5415      5418      5416      5415      5418      5419
      5416      5415      5418      5420      5416      5415      5418      5421
      5417      5415      5418      5419      5417      5415      5418      5420
      5417      5415      5418      5421      5422      5425      5428      5429
      5422      5425      5428      5430      5422      5425      5428      5431
      5423      5422      5425      5426      5423      5422      5425      5427
      5423      5422      5425      5428      5424      5422      5425      5426
      5424      5422      5425      5427      5424      5422      5425      5428
      5425      5428      5431      5432      5425      5428      5431      5433
      5425      5428      5431      5434      5426      5425      5428      5429
      5426      5425      5428      5430      5426      5425      5428      5431
      5427      5425      5428      5429      5427      5425      5428      5430
      5427      5425      5428      5431      5428      5431      5434      5435
      5428      5431      5434      5436      5428      5431      5434      5437
      5429      5428      5431      5432      5429      5428      5431      5433
      5429      5428      5431      5434      5430      5428      5431      5432
      5430      5428      5431      5433      5430      5428      5431      5434
      5431      5434      5437      5438      5431      5434      5437      5439
      5431      5434      5437      5440      5432      5431      5434      5435
      5432      5431      5434      5436      5432      5431      5434      5437
      5433      5431      5434      5435      5433      5431      5434      5436
      5433      5431      5434      5437      5434      5437      5440      5441
      5434      5437      5440      5442      5435      5434      5437      5438
      5435      5434      5437      5439      5435      5434      5437      5440
      5436      5434      5437      5438      5436      5434      5437      5439
      5436      5434      5437      5440      5437      5440      5442      5443
      5437      5440      5442      5444      5438      5437      5440      5441
      5438      5437      5440      5442      5439      5437      5440      5441
      5439      5437      5440      5442      5440      5442      5444      5445
      5440      5442      5444      5446      5440      5442      5444      5447
      5441      5440      5442      5443      5441      5440      5442      5444
      5442      5444      5447      5448      5442      5444      5447      5449
      5442      5444      5447      5450      5443      5442      5444      5445
      5443      5442      5444      5446      5443      5442      5444      5447
      5444      5447      5450      5451      5444      5447      5450      5452
      5444      5447      5450      5453      5445      5444      5447      5448
      5445      5444      5447      5449      5445      5444      5447      5450
      5446      5444      5447      5448      5446      5444      5447      5449
      5446      5444      5447      5450      5447      5450      5453      5454
      5447      5450      5453      5455      5447      5450      5453      5456
      5448      5447      5450      5451      5448      5447      5450      5452
      5448      5447      5450      5453      5449      5447      5450      5451
      5449      5447      5450      5452      5449      5447      5450      5453
      5450      5453      5456      5457      5450      5453      5456      5458
      5450      5453      5456      5459      5451      5450      5453      5454
      5451      5450      5453      5455      5451      5450      5453      5456
      5452      5450      5453      5454      5452      5450      5453      5455
      5452      5450      5453      5456      5453      5456      5459      5460
      5453      5456      5459      5461      5453      5456      5459      5462
      5454      5453      5456      5457      5454      5453      5456      5458
      5454      5453      5456      5459      5455      5453      5456      5457
      5455      5453      5456      5458      5455      5453      5456      5459
      5456      5459      5462      5463      5456      5459      5462      5464
      5456      5459      5462      5465      5457      5456      5459      5460
      5457      5456      5459      5461      5457      5456      5459      5462
      5458      5456      5459      5460      5458      5456      5459      5461
      5458      5456      5459      5462      5459      5462      5465      5466
      5459      5462      5465      5467      5459      5462      5465      5468
      5460      5459      5462      5463      5460      5459      5462      5464
      5460      5459      5462      5465      5461      5459      5462      5463
      5461      5459      5462      5464      5461      5459      5462      5465
      5463      5462      5465      5466      5463      5462      5465      5467
      5463      5462      5465      5468      5464      5462      5465      5466
      5464      5462      5465      5467      5464      5462      5465      5468
      5469      5470      5485      5486      5469      5470      5485      5487
      5469      5470      5485      5491      5470      5469      5473      5474
      5470      5469      5473      5475      5470      5469      5473      5476
      5470      5469      5477      5478      5470      5469      5477      5479
      5470      5469      5477      5480      5470      5469      5481      5482
      5470      5469      5481      5483      5470      5469      5481      5484
      5470      5485      5491      5488      5471      5470      5469      5473
      5471      5470      5469      5477      5471      5470      5469      5481
      5471      5470      5485      5486      5471      5470      5485      5487
      5471      5470      5485      5491      5472      5470      5469      5473
      5472      5470      5469      5477      5472      5470      5469      5481
      5472      5470      5485      5486      5472      5470      5485      5487
      5472      5470      5485      5491      5473      5469      5470      5485
      5473      5469      5477      5478      5473      5469      5477      5479
      5473      5469      5477      5480      5473      5469      5481      5482
      5473      5469      5481      5483      5473      5469      5481      5484
      5474      5473      5469      5477      5474      5473      5469      5481
      5475      5473      5469      5477      5475      5473      5469      5481
      5476      5473      5469      5477      5476      5473      5469      5481
      5477      5469      5470      5485      5477      5469      5481      5482
      5477      5469      5481      5483      5477      5469      5481      5484
      5478      5477      5469      5481      5479      5477      5469      5481
      5480      5477      5469      5481      5481      5469      5470      5485
      5485      5491      5488      5489      5485      5491      5488      5490
      5485      5491      5488      5492      5486      5485      5491      5488
      5487      5485      5491      5488      5488      5492      5493      5494
      5488      5492      5493      5495      5488      5492      5493      5496
      5489      5488      5492      5493      5490      5488      5492      5493
      5491      5488      5492      5493      5492      5493      5496      5497
      5492      5493      5496      5498      5492      5493      5496      5504
      5493      5496      5498      5499      5493      5496      5504      5505
      5493      5496      5504      5506      5493      5496      5504      5507
      5494      5493      5496      5497      5494      5493      5496      5498
      5494      5493      5496      5504      5495      5493      5496      5497
      5495      5493      5496      5498      5495      5493      5496      5504
      5496      5498      5499      5500      5496      5498      5499      5501
      5496      5504      5507      5508      5497      5496      5498      5499
      5497      5496      5504      5505      5497      5496      5504      5506
      5497      5496      5504      5507      5498      5496      5504      5505
      5498      5496      5504      5506      5498      5496      5504      5507
      5498      5499      5501      5502      5498      5499      5501      5503
      5498      5499      5501      5513      5499      5498      5496      5504
      5499      5501      5513      5514      5499      5501      5513      5515
      5499      5501      5513      5516      5500      5499      5501      5502
      5500      5499      5501      5503      5500      5499      5501      5513
      5501      5513      5516      5517      5501      5513      5516      5518
      5501      5513      5516      5519      5502      5501      5513      5514
      5502      5501      5513      5515      5502      5501      5513      5516
      5503      5501      5513      5514      5503      5501      5513      5515
      5503      5501      5513      5516      5504      5507      5508      5509
      5504      5507      5508      5510      5505      5504      5507      5508
      5506      5504      5507      5508      5507      5508      5510      5511
      5507      5508      5510      5512      5507      5508      5510      5560
      5508      5510      5560      5561      5508      5510      5560      5562
      5508      5510      5560      5563      5509      5508      5510      5511
      5509      5508      5510      5512      5509      5508      5510      5560
      5510      5560      5563      5564      5510      5560      5563      5565
      5510      5560      5563      5566      5511      5510      5560      5561
      5511      5510      5560      5562      5511      5510      5560      5563
      5512      5510      5560      5561      5512      5510      5560      5562
      5512      5510      5560      5563      5513      5516      5519      5520
      5513      5516      5519      5521      5513      5516      5519      5522
      5514      5513      5516      5517      5514      5513      5516      5518
      5514      5513      5516      5519      5515      5513      5516      5517
      5515      5513      5516      5518      5515      5513      5516      5519
      5516      5519      5522      5523      5516      5519      5522      5524
      5516      5519      5522      5525      5517      5516      5519      5520
      5517      5516      5519      5521      5517      5516      5519      5522
      5518      5516      5519      5520      5518      5516      5519      5521
      5518      5516      5519      5522      5519      5522      5525      5526
      5519      5522      5525      5527      5519      5522      5525      5528
      5520      5519      5522      5523      5520      5519      5522      5524
      5520      5519      5522      5525      5521      5519      5522      5523
      5521      5519      5522      5524      5521      5519      5522      5525
      5522      5525      5528      5529      5522      5525      5528      5530
      5522      5525      5528      5531      5523      5522      5525      5526
      5523      5522      5525      5527      5523      5522      5525      5528
      5524      5522      5525      5526      5524      5522      5525      5527
      5524      5522      5525      5528      5525      5528      5531      5532
      5525      5528      5531      5533      5526      5525      5528      5529
      5526      5525      5528      5530      5526      5525      5528      5531
      5527      5525      5528      5529      5527      5525      5528      5530
      5527      5525      5528      5531      5528      5531      5533      5534
      5528      5531      5533      5535      5529      5528      5531      5532
      5529      5528      5531      5533      5530      5528      5531      5532
      5530      5528      5531      5533      5531      5533      5535      5536
      5531      5533      5535      5537      5531      5533      5535      5538
      5532      5531      5533      5534      5532      5531      5533      5535
      5533      5535      5538      5539      5533      5535      5538      5540
      5533      5535      5538      5541      5534      5533      5535      5536
      5534      5533      5535      5537      5534      5533      5535      5538
      5535      5538      5541      5542      5535      5538      5541      5543
      5535      5538      5541      5544      5536      5535      5538      5539
      5536      5535      5538      5540      5536      5535      5538      5541
      5537      5535      5538      5539      5537      5535      5538      5540
      5537      5535      5538      5541      5538      5541      5544      5545
      5538      5541      5544      5546      5538      5541      5544      5547
      5539      5538      5541      5542      5539      5538      5541      5543
      5539      5538      5541      5544      5540      5538      5541      5542
      5540      5538      5541      5543      5540      5538      5541      5544
      5541      5544      5547      5548      5541      5544      5547      5549
      5541      5544      5547      5550      5542      5541      5544      5545
      5542      5541      5544      5546      5542      5541      5544      5547
      5543      5541      5544      5545      5543      5541      5544      5546
      5543      5541      5544      5547      5544      5547      5550      5551
      5544      5547      5550      5552      5544      5547      5550      5553
      5545      5544      5547      5548      5545      5544      5547      5549
      5545      5544      5547      5550      5546      5544      5547      5548
      5546      5544      5547      5549      5546      5544      5547      5550
      5547      5550      5553      5554      5547      5550      5553      5555
      5547      5550      5553      5556      5548      5547      5550      5551
      5548      5547      5550      5552      5548      5547      5550      5553
      5549      5547      5550      5551      5549      5547      5550      5552
      5549      5547      5550      5553      5550      5553      5556      5557
      5550      5553      5556      5558      5550      5553      5556      5559
      5551      5550      5553      5554      5551      5550      5553      5555
      5551      5550      5553      5556      5552      5550      5553      5554
      5552      5550      5553      5555      5552      5550      5553      5556
      5554      5553      5556      5557      5554      5553      5556      5558
      5554      5553      5556      5559      5555      5553      5556      5557
      5555      5553      5556      5558      5555      5553      5556      5559
      5560      5563      5566      5567      5560      5563      5566      5568
      5560      5563      5566      5569      5561      5560      5563      5564
      5561      5560      5563      5565      5561      5560      5563      5566
      5562      5560      5563      5564      5562      5560      5563      5565
      5562      5560      5563      5566      5563      5566      5569      5570
      5563      5566      5569      5571      5563      5566      5569      5572
      5564      5563      5566      5567      5564      5563      5566      5568
      5564      5563      5566      5569      5565      5563      5566      5567
      5565      5563      5566      5568      5565      5563      5566      5569
      5566      5569      5572      5573      5566      5569      5572      5574
      5566      5569      5572      5575      5567      5566      5569      5570
      5567      5566      5569      5571      5567      5566      5569      5572
      5568      5566      5569      5570      5568      5566      5569      5571
      5568      5566      5569      5572      5569      5572      5575      5576
      5569      5572      5575      5577      5569      5572      5575      5578
      5570      5569      5572      5573      5570      5569      5572      5574
      5570      5569      5572      5575      5571      5569      5572      5573
      5571      5569      5572      5574      5571      5569      5572      5575
      5572      5575      5578      5579      5572      5575      5578      5580
      5573      5572      5575      5576      5573      5572      5575      5577
      5573      5572      5575      5578      5574      5572      5575      5576
      5574      5572      5575      5577      5574      5572      5575      5578
      5575      5578      5580      5581      5575      5578      5580      5582
      5576      5575      5578      5579      5576      5575      5578      5580
      5577      5575      5578      5579      5577      5575      5578      5580
      5578      5580      5582      5583      5578      5580      5582      5584
      5578      5580      5582      5585      5579      5578      5580      5581
      5579      5578      5580      5582      5580      5582      5585      5586
      5580      5582      5585      5587      5580      5582      5585      5588
      5581      5580      5582      5583      5581      5580      5582      5584
      5581      5580      5582      5585      5582      5585      5588      5589
      5582      5585      5588      5590      5582      5585      5588      5591
      5583      5582      5585      5586      5583      5582      5585      5587
      5583      5582      5585      5588      5584      5582      5585      5586
      5584      5582      5585      5587      5584      5582      5585      5588
      5585      5588      5591      5592      5585      5588      5591      5593
      5585      5588      5591      5594      5586      5585      5588      5589
      5586      5585      5588      5590      5586      5585      5588      5591
      5587      5585      5588      5589      5587      5585      5588      5590
      5587      5585      5588      5591      5588      5591      5594      5595
      5588      5591      5594      5596      5588      5591      5594      5597
      5589      5588      5591      5592      5589      5588      5591      5593
      5589      5588      5591      5594      5590      5588      5591      5592
      5590      5588      5591      5593      5590      5588      5591      5594
      5591      5594      5597      5598      5591      5594      5597      5599
      5591      5594      5597      5600      5592      5591      5594      5595
      5592      5591      5594      5596      5592      5591      5594      5597
      5593      5591      5594      5595      5593      5591      5594      5596
      5593      5591      5594      5597      5594      5597      5600      5601
      5594      5597      5600      5602      5594      5597      5600      5603
      5595      5594      5597      5598      5595      5594      5597      5599
      5595      5594      5597      5600      5596      5594      5597      5598
      5596      5594      5597      5599      5596      5594      5597      5600
      5597      5600      5603      5604      5597      5600      5603      5605
      5597      5600      5603      5606      5598      5597      5600      5601
      5598      5597      5600      5602      5598      5597      5600      5603
      5599      5597      5600      5601      5599      5597      5600      5602
      5599      5597      5600      5603      5601      5600      5603      5604
      5601      5600      5603      5605      5601      5600      5603      5606
      5602      5600      5603      5604      5602      5600      5603      5605
      5602      5600      5603      5606      5607      5608      5623      5624
      5607      5608      5623      5625      5607      5608      5623      5629
      5608      5607      5611      5612      5608      5607      5611      5613
      5608      5607      5611      5614      5608      5607      5615      5616
      5608      5607      5615      5617      5608      5607      5615      5618
      5608      5607      5619      5620      5608      5607      5619      5621
      5608      5607      5619      5622      5608      5623      5629      5626
      5609      5608      5607      5611      5609      5608      5607      5615
      5609      5608      5607      5619      5609      5608      5623      5624
      5609      5608      5623      5625      5609      5608      5623      5629
      5610      5608      5607      5611      5610      5608      5607      5615
      5610      5608      5607      5619      5610      5608      5623      5624
      5610      5608      5623      5625      5610      5608      5623      5629
      5611      5607      5608      5623      5611      5607      5615      5616
      5611      5607      5615      5617      5611      5607      5615      5618
      5611      5607      5619      5620      5611      5607      5619      5621
      5611      5607      5619      5622      5612      5611      5607      5615
      5612      5611      5607      5619      5613      5611      5607      5615
      5613      5611      5607      5619      5614      5611      5607      5615
      5614      5611      5607      5619      5615      5607      5608      5623
      5615      5607      5619      5620      5615      5607      5619      5621
      5615      5607      5619      5622      5616      5615      5607      5619
      5617      5615      5607      5619      5618      5615      5607      5619
      5619      5607      5608      5623      5623      5629      5626      5627
      5623      5629      5626      5628      5623      5629      5626      5630
      5624      5623      5629      5626      5625      5623      5629      5626
      5626      5630      5631      5632      5626      5630      5631      5633
      5626      5630      5631      5634      5627      5626      5630      5631
      5628      5626      5630      5631      5629      5626      5630      5631
      5630      5631      5634      5635      5630      5631      5634      5636
      5630      5631      5634      5642      5631      5634      5636      5637
      5631      5634      5642      5643      5631      5634      5642      5644
      5631      5634      5642      5645      5632      5631      5634      5635
      5632      5631      5634      5636      5632      5631      5634      5642
      5633      5631      5634      5635      5633      5631      5634      5636
      5633      5631      5634      5642      5634      5636      5637      5638
      5634      5636      5637      5639      5634      5642      5645      5646
      5635      5634      5636      5637      5635      5634      5642      5643
      5635      5634      5642      5644      5635      5634      5642      5645
      5636      5634      5642      5643      5636      5634      5642      5644
      5636      5634      5642      5645      5636      5637      5639      5640
      5636      5637      5639      5641      5636      5637      5639      5651
      5637      5636      5634      5642      5637      5639      5651      5652
      5637      5639      5651      5653      5637      5639      5651      5654
      5638      5637      5639      5640      5638      5637      5639      5641
      5638      5637      5639      5651      5639      5651      5654      5655
      5639      5651      5654      5656      5639      5651      5654      5657
      5640      5639      5651      5652      5640      5639      5651      5653
      5640      5639      5651      5654      5641      5639      5651      5652
      5641      5639      5651      5653      5641      5639      5651      5654
      5642      5645      5646      5647      5642      5645      5646      5648
      5643      5642      5645      5646      5644      5642      5645      5646
      5645      5646      5648      5649      5645      5646      5648      5650
      5645      5646      5648      5698      5646      5648      5698      5699
      5646      5648      5698      5700      5646      5648      5698      5701
      5647      5646      5648      5649      5647      5646      5648      5650
      5647      5646      5648      5698      5648      5698      5701      5702
      5648      5698      5701      5703      5648      5698      5701      5704
      5649      5648      5698      5699      5649      5648      5698      5700
      5649      5648      5698      5701      5650      5648      5698      5699
      5650      5648      5698      5700      5650      5648      5698      5701
      5651      5654      5657      5658      5651      5654      5657      5659
      5651      5654      5657      5660      5652      5651      5654      5655
      5652      5651      5654      5656      5652      5651      5654      5657
      5653      5651      5654      5655      5653      5651      5654      5656
      5653      5651      5654      5657      5654      5657      5660      5661
      5654      5657      5660      5662      5654      5657      5660      5663
      5655      5654      5657      5658      5655      5654      5657      5659
      5655      5654      5657      5660      5656      5654      5657      5658
      5656      5654      5657      5659      5656      5654      5657      5660
      5657      5660      5663      5664      5657      5660      5663      5665
      5657      5660      5663      5666      5658      5657      5660      5661
      5658      5657      5660      5662      5658      5657      5660      5663
      5659      5657      5660      5661      5659      5657      5660      5662
      5659      5657      5660      5663      5660      5663      5666      5667
      5660      5663      5666      5668      5660      5663      5666      5669
      5661      5660      5663      5664      5661      5660      5663      5665
      5661      5660      5663      5666      5662      5660      5663      5664
      5662      5660      5663      5665      5662      5660      5663      5666
      5663      5666      5669      5670      5663      5666      5669      5671
      5664      5663      5666      5667      5664      5663      5666      5668
      5664      5663      5666      5669      5665      5663      5666      5667
      5665      5663      5666      5668      5665      5663      5666      5669
      5666      5669      5671      5672      5666      5669      5671      5673
      5667      5666      5669      5670      5667      5666      5669      5671
      5668      5666      5669      5670      5668      5666      5669      5671
      5669      5671      5673      5674      5669      5671      5673      5675
      5669      5671      5673      5676      5670      5669      5671      5672
      5670      5669      5671      5673      5671      5673      5676      5677
      5671      5673      5676      5678      5671      5673      5676      5679
      5672      5671      5673      5674      5672      5671      5673      5675
      5672      5671      5673      5676      5673      5676      5679      5680
      5673      5676      5679      5681      5673      5676      5679      5682
      5674      5673      5676      5677      5674      5673      5676      5678
      5674      5673      5676      5679      5675      5673      5676      5677
      5675      5673      5676      5678      5675      5673      5676      5679
      5676      5679      5682      5683      5676      5679      5682      5684
      5676      5679      5682      5685      5677      5676      5679      5680
      5677      5676      5679      5681      5677      5676      5679      5682
      5678      5676      5679      5680      5678      5676      5679      5681
      5678      5676      5679      5682      5679      5682      5685      5686
      5679      5682      5685      5687      5679      5682      5685      5688
      5680      5679      5682      5683      5680      5679      5682      5684
      5680      5679      5682      5685      5681      5679      5682      5683
      5681      5679      5682      5684      5681      5679      5682      5685
      5682      5685      5688      5689      5682      5685      5688      5690
      5682      5685      5688      5691      5683      5682      5685      5686
      5683      5682      5685      5687      5683      5682      5685      5688
      5684      5682      5685      5686      5684      5682      5685      5687
      5684      5682      5685      5688      5685      5688      5691      5692
      5685      5688      5691      5693      5685      5688      5691      5694
      5686      5685      5688      5689      5686      5685      5688      5690
      5686      5685      5688      5691      5687      5685      5688      5689
      5687      5685      5688      5690      5687      5685      5688      5691
      5688      5691      5694      5695      5688      5691      5694      5696
      5688      5691      5694      5697      5689      5688      5691      5692
      5689      5688      5691      5693      5689      5688      5691      5694
      5690      5688      5691      5692      5690      5688      5691      5693
      5690      5688      5691      5694      5692      5691      5694      5695
      5692      5691      5694      5696      5692      5691      5694      5697
      5693      5691      5694      5695      5693      5691      5694      5696
      5693      5691      5694      5697      5698      5701      5704      5705
      5698      5701      5704      5706      5698      5701      5704      5707
      5699      5698      5701      5702      5699      5698      5701      5703
      5699      5698      5701      5704      5700      5698      5701      5702
      5700      5698      5701      5703      5700      5698      5701      5704
      5701      5704      5707      5708      5701      5704      5707      5709
      5701      5704      5707      5710      5702      5701      5704      5705
      5702      5701      5704      5706      5702      5701      5704      5707
      5703      5701      5704      5705      5703      5701      5704      5706
      5703      5701      5704      5707      5704      5707      5710      5711
      5704      5707      5710      5712      5704      5707      5710      5713
      5705      5704      5707      5708      5705      5704      5707      5709
      5705      5704      5707      5710      5706      5704      5707      5708
      5706      5704      5707      5709      5706      5704      5707      5710
      5707      5710      5713      5714      5707      5710      5713      5715
      5707      5710      5713      5716      5708      5707      5710      5711
      5708      5707      5710      5712      5708      5707      5710      5713
      5709      5707      5710      5711      5709      5707      5710      5712
      5709      5707      5710      5713      5710      5713      5716      5717
      5710      5713      5716      5718      5711      5710      5713      5714
      5711      5710      5713      5715      5711      5710      5713      5716
      5712      5710      5713      5714      5712      5710      5713      5715
      5712      5710      5713      5716      5713      5716      5718      5719
      5713      5716      5718      5720      5714      5713      5716      5717
      5714      5713      5716      5718      5715      5713      5716      5717
      5715      5713      5716      5718      5716      5718      5720      5721
      5716      5718      5720      5722      5716      5718      5720      5723
      5717      5716      5718      5719      5717      5716      5718      5720
      5718      5720      5723      5724      5718      5720      5723      5725
      5718      5720      5723      5726      5719      5718      5720      5721
      5719      5718      5720      5722      5719      5718      5720      5723
      5720      5723      5726      5727      5720      5723      5726      5728
      5720      5723      5726      5729      5721      5720      5723      5724
      5721      5720      5723      5725      5721      5720      5723      5726
      5722      5720      5723      5724      5722      5720      5723      5725
      5722      5720      5723      5726      5723      5726      5729      5730
      5723      5726      5729      5731      5723      5726      5729      5732
      5724      5723      5726      5727      5724      5723      5726      5728
      5724      5723      5726      5729      5725      5723      5726      5727
      5725      5723      5726      5728      5725      5723      5726      5729
      5726      5729      5732      5733      5726      5729      5732      5734
      5726      5729      5732      5735      5727      5726      5729      5730
      5727      5726      5729      5731      5727      5726      5729      5732
      5728      5726      5729      5730      5728      5726      5729      5731
      5728      5726      5729      5732      5729      5732      5735      5736
      5729      5732      5735      5737      5729      5732      5735      5738
      5730      5729      5732      5733      5730      5729      5732      5734
      5730      5729      5732      5735      5731      5729      5732      5733
      5731      5729      5732      5734      5731      5729      5732      5735
      5732      5735      5738      5739      5732      5735      5738      5740
      5732      5735      5738      5741      5733      5732      5735      5736
      5733      5732      5735      5737      5733      5732      5735      5738
      5734      5732      5735      5736      5734      5732      5735      5737
      5734      5732      5735      5738      5735      5738      5741      5742
      5735      5738      5741      5743      5735      5738      5741      5744
      5736      5735      5738      5739      5736      5735      5738      5740
      5736      5735      5738      5741      5737      5735      5738      5739
      5737      5735      5738      5740      5737      5735      5738      5741
      5739      5738      5741      5742      5739      5738      5741      5743
      5739      5738      5741      5744      5740      5738      5741      5742
      5740      5738      5741      5743      5740      5738      5741      5744
      5745      5746      5761      5762      5745      5746      5761      5763
      5745      5746      5761      5767      5746      5745      5749      5750
      5746      5745      5749      5751      5746      5745      5749      5752
      5746      5745      5753      5754      5746      5745      5753      5755
      5746      5745      5753      5756      5746      5745      5757      5758
      5746      5745      5757      5759      5746      5745      5757      5760
      5746      5761      5767      5764      5747      5746      5745      5749
      5747      5746      5745      5753      5747      5746      5745      5757
      5747      5746      5761      5762      5747      5746      5761      5763
      5747      5746      5761      5767      5748      5746      5745      5749
      5748      5746      5745      5753      5748      5746      5745      5757
      5748      5746      5761      5762      5748      5746      5761      5763
      5748      5746      5761      5767      5749      5745      5746      5761
      5749      5745      5753      5754      5749      5745      5753      5755
      5749      5745      5753      5756      5749      5745      5757      5758
      5749      5745      5757      5759      5749      5745      5757      5760
      5750      5749      5745      5753      5750      5749      5745      5757
      5751      5749      5745      5753      5751      5749      5745      5757
      5752      5749      5745      5753      5752      5749      5745      5757
      5753      5745      5746      5761      5753      5745      5757      5758
      5753      5745      5757      5759      5753      5745      5757      5760
      5754      5753      5745      5757      5755      5753      5745      5757
      5756      5753      5745      5757      5757      5745      5746      5761
      5761      5767      5764      5765      5761      5767      5764      5766
      5761      5767      5764      5768      5762      5761      5767      5764
      5763      5761      5767      5764      5764      5768      5769      5770
      5764      5768      5769      5771      5764      5768      5769      5772
      5765      5764      5768      5769      5766      5764      5768      5769
      5767      5764      5768      5769      5768      5769      5772      5773
      5768      5769      5772      5774      5768      5769      5772      5780
      5769      5772      5774      5775      5769      5772      5780      5781
      5769      5772      5780      5782      5769      5772      5780      5783
      5770      5769      5772      5773      5770      5769      5772      5774
      5770      5769      5772      5780      5771      5769      5772      5773
      5771      5769      5772      5774      5771      5769      5772      5780
      5772      5774      5775      5776      5772      5774      5775      5777
      5772      5780      5783      5784      5773      5772      5774      5775
      5773      5772      5780      5781      5773      5772      5780      5782
      5773      5772      5780      5783      5774      5772      5780      5781
      5774      5772      5780      5782      5774      5772      5780      5783
      5774      5775      5777      5778      5774      5775      5777      5779
      5774      5775      5777      5789      5775      5774      5772      5780
      5775      5777      5789      5790      5775      5777      5789      5791
      5775      5777      5789      5792      5776      5775      5777      5778
      5776      5775      5777      5779      5776      5775      5777      5789
      5777      5789      5792      5793      5777      5789      5792      5794
      5777      5789      5792      5795      5778      5777      5789      5790
      5778      5777      5789      5791      5778      5777      5789      5792
      5779      5777      5789      5790      5779      5777      5789      5791
      5779      5777      5789      5792      5780      5783      5784      5785
      5780      5783      5784      5786      5781      5780      5783      5784
      5782      5780      5783      5784      5783      5784      5786      5787
      5783      5784      5786      5788      5783      5784      5786      5836
      5784      5786      5836      5837      5784      5786      5836      5838
      5784      5786      5836      5839      5785      5784      5786      5787
      5785      5784      5786      5788      5785      5784      5786      5836
      5786      5836      5839      5840      5786      5836      5839      5841
      5786      5836      5839      5842      5787      5786      5836      5837
      5787      5786      5836      5838      5787      5786      5836      5839
      5788      5786      5836      5837      5788      5786      5836      5838
      5788      5786      5836      5839      5789      5792      5795      5796
      5789      5792      5795      5797      5789      5792      5795      5798
      5790      5789      5792      5793      5790      5789      5792      5794
      5790      5789      5792      5795      5791      5789      5792      5793
      5791      5789      5792      5794      5791      5789      5792      5795
      5792      5795      5798      5799      5792      5795      5798      5800
      5792      5795      5798      5801      5793      5792      5795      5796
      5793      5792      5795      5797      5793      5792      5795      5798
      5794      5792      5795      5796      5794      5792      5795      5797
      5794      5792      5795      5798      5795      5798      5801      5802
      5795      5798      5801      5803      5795      5798      5801      5804
      5796      5795      5798      5799      5796      5795      5798      5800
      5796      5795      5798      5801      5797      5795      5798      5799
      5797      5795      5798      5800      5797      5795      5798      5801
      5798      5801      5804      5805      5798      5801      5804      5806
      5798      5801      5804      5807      5799      5798      5801      5802
      5799      5798      5801      5803      5799      5798      5801      5804
      5800      5798      5801      5802      5800      5798      5801      5803
      5800      5798      5801      5804      5801      5804      5807      5808
      5801      5804      5807      5809      5802      5801      5804      5805
      5802      5801      5804      5806      5802      5801      5804      5807
      5803      5801      5804      5805      5803      5801      5804      5806
      5803      5801      5804      5807      5804      5807      5809      5810
      5804      5807      5809      5811      5805      5804      5807      5808
      5805      5804      5807      5809      5806      5804      5807      5808
      5806      5804      5807      5809      5807      5809      5811      5812
      5807      5809      5811      5813      5807      5809      5811      5814
      5808      5807      5809      5810      5808      5807      5809      5811
      5809      5811      5814      5815      5809      5811      5814      5816
      5809      5811      5814      5817      5810      5809      5811      5812
      5810      5809      5811      5813      5810      5809      5811      5814
      5811      5814      5817      5818      5811      5814      5817      5819
      5811      5814      5817      5820      5812      5811      5814      5815
      5812      5811      5814      5816      5812      5811      5814      5817
      5813      5811      5814      5815      5813      5811      5814      5816
      5813      5811      5814      5817      5814      5817      5820      5821
      5814      5817      5820      5822      5814      5817      5820      5823
      5815      5814      5817      5818      5815      5814      5817      5819
      5815      5814      5817      5820      5816      5814      5817      5818
      5816      5814      5817      5819      5816      5814      5817      5820
      5817      5820      5823      5824      5817      5820      5823      5825
      5817      5820      5823      5826      5818      5817      5820      5821
      5818      5817      5820      5822      5818      5817      5820      5823
      5819      5817      5820      5821      5819      5817      5820      5822
      5819      5817      5820      5823      5820      5823      5826      5827
      5820      5823      5826      5828      5820      5823      5826      5829
      5821      5820      5823      5824      5821      5820      5823      5825
      5821      5820      5823      5826      5822      5820      5823      5824
      5822      5820      5823      5825      5822      5820      5823      5826
      5823      5826      5829      5830      5823      5826      5829      5831
      5823      5826      5829      5832      5824      5823      5826      5827
      5824      5823      5826      5828      5824      5823      5826      5829
      5825      5823      5826      5827      5825      5823      5826      5828
      5825      5823      5826      5829      5826      5829      5832      5833
      5826      5829      5832      5834      5826      5829      5832      5835
      5827      5826      5829      5830      5827      5826      5829      5831
      5827      5826      5829      5832      5828      5826      5829      5830
      5828      5826      5829      5831      5828      5826      5829      5832
      5830      5829      5832      5833      5830      5829      5832      5834
      5830      5829      5832      5835      5831      5829      5832      5833
      5831      5829      5832      5834      5831      5829      5832      5835
      5836      5839      5842      5843      5836      5839      5842      5844
      5836      5839      5842      5845      5837      5836      5839      5840
      5837      5836      5839      5841      5837      5836      5839      5842
      5838      5836      5839      5840      5838      5836      5839      5841
      5838      5836      5839      5842      5839      5842      5845      5846
      5839      5842      5845      5847      5839      5842      5845      5848
      5840      5839      5842      5843      5840      5839      5842      5844
      5840      5839      5842      5845      5841      5839      5842      5843
      5841      5839      5842      5844      5841      5839      5842      5845
      5842      5845      5848      5849      5842      5845      5848      5850
      5842      5845      5848      5851      5843      5842      5845      5846
      5843      5842      5845      5847      5843      5842      5845      5848
      5844      5842      5845      5846      5844      5842      5845      5847
      5844      5842      5845      5848      5845      5848      5851      5852
      5845      5848      5851      5853      5845      5848      5851      5854
      5846      5845      5848      5849      5846      5845      5848      5850
      5846      5845      5848      5851      5847      5845      5848      5849
      5847      5845      5848      5850      5847      5845      5848      5851
      5848      5851      5854      5855      5848      5851      5854      5856
      5849      5848      5851      5852      5849      5848      5851      5853
      5849      5848      5851      5854      5850      5848      5851      5852
      5850      5848      5851      5853      5850      5848      5851      5854
      5851      5854      5856      5857      5851      5854      5856      5858
      5852      5851      5854      5855      5852      5851      5854      5856
      5853      5851      5854      5855      5853      5851      5854      5856
      5854      5856      5858      5859      5854      5856      5858      5860
      5854      5856      5858      5861      5855      5854      5856      5857
      5855      5854      5856      5858      5856      5858      5861      5862
      5856      5858      5861      5863      5856      5858      5861      5864
      5857      5856      5858      5859      5857      5856      5858      5860
      5857      5856      5858      5861      5858      5861      5864      5865
      5858      5861      5864      5866      5858      5861      5864      5867
      5859      5858      5861      5862      5859      5858      5861      5863
      5859      5858      5861      5864      5860      5858      5861      5862
      5860      5858      5861      5863      5860      5858      5861      5864
      5861      5864      5867      5868      5861      5864      5867      5869
      5861      5864      5867      5870      5862      5861      5864      5865
      5862      5861      5864      5866      5862      5861      5864      5867
      5863      5861      5864      5865      5863      5861      5864      5866
      5863      5861      5864      5867      5864      5867      5870      5871
      5864      5867      5870      5872      5864      5867      5870      5873
      5865      5864      5867      5868      5865      5864      5867      5869
      5865      5864      5867      5870      5866      5864      5867      5868
      5866      5864      5867      5869      5866      5864      5867      5870
      5867      5870      5873      5874      5867      5870      5873      5875
      5867      5870      5873      5876      5868      5867      5870      5871
      5868      5867      5870      5872      5868      5867      5870      5873
      5869      5867      5870      5871      5869      5867      5870      5872
      5869      5867      5870      5873      5870      5873      5876      5877
      5870      5873      5876      5878      5870      5873      5876      5879
      5871      5870      5873      5874      5871      5870      5873      5875
      5871      5870      5873      5876      5872      5870      5873      5874
      5872      5870      5873      5875      5872      5870      5873      5876
      5873      5876      5879      5880      5873      5876      5879      5881
      5873      5876      5879      5882      5874      5873      5876      5877
      5874      5873      5876      5878      5874      5873      5876      5879
      5875      5873      5876      5877      5875      5873      5876      5878
      5875      5873      5876      5879      5877      5876      5879      5880
      5877      5876      5879      5881      5877      5876      5879      5882
      5878      5876      5879      5880      5878      5876      5879      5881
      5878      5876      5879      5882      5883      5884      5899      5900
      5883      5884      5899      5901      5883      5884      5899      5905
      5884      5883      5887      5888      5884      5883      5887      5889
      5884      5883      5887      5890      5884      5883      5891      5892
      5884      5883      5891      5893      5884      5883      5891      5894
      5884      5883      5895      5896      5884      5883      5895      5897
      5884      5883      5895      5898      5884      5899      5905      5902
      5885      5884      5883      5887      5885      5884      5883      5891
      5885      5884      5883      5895      5885      5884      5899      5900
      5885      5884      5899      5901      5885      5884      5899      5905
      5886      5884      5883      5887      5886      5884      5883      5891
      5886      5884      5883      5895      5886      5884      5899      5900
      5886      5884      5899      5901      5886      5884      5899      5905
      5887      5883      5884      5899      5887      5883      5891      5892
      5887      5883      5891      5893      5887      5883      5891      5894
      5887      5883      5895      5896      5887      5883      5895      5897
      5887      5883      5895      5898      5888      5887      5883      5891
      5888      5887      5883      5895      5889      5887      5883      5891
      5889      5887      5883      5895      5890      5887      5883      5891
      5890      5887      5883      5895      5891      5883      5884      5899
      5891      5883      5895      5896      5891      5883      5895      5897
      5891      5883      5895      5898      5892      5891      5883      5895
      5893      5891      5883      5895      5894      5891      5883      5895
      5895      5883      5884      5899      5899      5905      5902      5903
      5899      5905      5902      5904      5899      5905      5902      5906
      5900      5899      5905      5902      5901      5899      5905      5902
      5902      5906      5907      5908      5902      5906      5907      5909
      5902      5906      5907      5910      5903      5902      5906      5907
      5904      5902      5906      5907      5905      5902      5906      5907
      5906      5907      5910      5911      5906      5907      5910      5912
      5906      5907      5910      5918      5907      5910      5912      5913
      5907      5910      5918      5919      5907      5910      5918      5920
      5907      5910      5918      5921      5908      5907      5910      5911
      5908      5907      5910      5912      5908      5907      5910      5918
      5909      5907      5910      5911      5909      5907      5910      5912
      5909      5907      5910      5918      5910      5912      5913      5914
      5910      5912      5913      5915      5910      5918      5921      5922
      5911      5910      5912      5913      5911      5910      5918      5919
      5911      5910      5918      5920      5911      5910      5918      5921
      5912      5910      5918      5919      5912      5910      5918      5920
      5912      5910      5918      5921      5912      5913      5915      5916
      5912      5913      5915      5917      5912      5913      5915      5927
      5913      5912      5910      5918      5913      5915      5927      5928
      5913      5915      5927      5929      5913      5915      5927      5930
      5914      5913      5915      5916      5914      5913      5915      5917
      5914      5913      5915      5927      5915      5927      5930      5931
      5915      5927      5930      5932      5915      5927      5930      5933
      5916      5915      5927      5928      5916      5915      5927      5929
      5916      5915      5927      5930      5917      5915      5927      5928
      5917      5915      5927      5929      5917      5915      5927      5930
      5918      5921      5922      5923      5918      5921      5922      5924
      5919      5918      5921      5922      5920      5918      5921      5922
      5921      5922      5924      5925      5921      5922      5924      5926
      5921      5922      5924      5974      5922      5924      5974      5975
      5922      5924      5974      5976      5922      5924      5974      5977
      5923      5922      5924      5925      5923      5922      5924      5926
      5923      5922      5924      5974      5924      5974      5977      5978
      5924      5974      5977      5979      5924      5974      5977      5980
      5925      5924      5974      5975      5925      5924      5974      5976
      5925      5924      5974      5977      5926      5924      5974      5975
      5926      5924      5974      5976      5926      5924      5974      5977
      5927      5930      5933      5934      5927      5930      5933      5935
      5927      5930      5933      5936      5928      5927      5930      5931
      5928      5927      5930      5932      5928      5927      5930      5933
      5929      5927      5930      5931      5929      5927      5930      5932
      5929      5927      5930      5933      5930      5933      5936      5937
      5930      5933      5936      5938      5930      5933      5936      5939
      5931      5930      5933      5934      5931      5930      5933      5935
      5931      5930      5933      5936      5932      5930      5933      5934
      5932      5930      5933      5935      5932      5930      5933      5936
      5933      5936      5939      5940      5933      5936      5939      5941
      5933      5936      5939      5942      5934      5933      5936      5937
      5934      5933      5936      5938      5934      5933      5936      5939
      5935      5933      5936      5937      5935      5933      5936      5938
      5935      5933      5936      5939      5936      5939      5942      5943
      5936      5939      5942      5944      5936      5939      5942      5945
      5937      5936      5939      5940      5937      5936      5939      5941
      5937      5936      5939      5942      5938      5936      5939      5940
      5938      5936      5939      5941      5938      5936      5939      5942
      5939      5942      5945      5946      5939      5942      5945      5947
      5940      5939      5942      5943      5940      5939      5942      5944
      5940      5939      5942      5945      5941      5939      5942      5943
      5941      5939      5942      5944      5941      5939      5942      5945
      5942      5945      5947      5948      5942      5945      5947      5949
      5943      5942      5945      5946      5943      5942      5945      5947
      5944      5942      5945      5946      5944      5942      5945      5947
      5945      5947      5949      5950      5945      5947      5949      5951
      5945      5947      5949      5952      5946      5945      5947      5948
      5946      5945      5947      5949      5947      5949      5952      5953
      5947      5949      5952      5954      5947      5949      5952      5955
      5948      5947      5949      5950      5948      5947      5949      5951
      5948      5947      5949      5952      5949      5952      5955      5956
      5949      5952      5955      5957      5949      5952      5955      5958
      5950      5949      5952      5953      5950      5949      5952      5954
      5950      5949      5952      5955      5951      5949      5952      5953
      5951      5949      5952      5954      5951      5949      5952      5955
      5952      5955      5958      5959      5952      5955      5958      5960
      5952      5955      5958      5961      5953      5952      5955      5956
      5953      5952      5955      5957      5953      5952      5955      5958
      5954      5952      5955      5956      5954      5952      5955      5957
      5954      5952      5955      5958      5955      5958      5961      5962
      5955      5958      5961      5963      5955      5958      5961      5964
      5956      5955      5958      5959      5956      5955      5958      5960
      5956      5955      5958      5961      5957      5955      5958      5959
      5957      5955      5958      5960      5957      5955      5958      5961
      5958      5961      5964      5965      5958      5961      5964      5966
      5958      5961      5964      5967      5959      5958      5961      5962
      5959      5958      5961      5963      5959      5958      5961      5964
      5960      5958      5961      5962      5960      5958      5961      5963
      5960      5958      5961      5964      5961      5964      5967      5968
      5961      5964      5967      5969      5961      5964      5967      5970
      5962      5961      5964      5965      5962      5961      5964      5966
      5962      5961      5964      5967      5963      5961      5964      5965
      5963      5961      5964      5966      5963      5961      5964      5967
      5964      5967      5970      5971      5964      5967      5970      5972
      5964      5967      5970      5973      5965      5964      5967      5968
      5965      5964      5967      5969      5965      5964      5967      5970
      5966      5964      5967      5968      5966      5964      5967      5969
      5966      5964      5967      5970      5968      5967      5970      5971
      5968      5967      5970      5972      5968      5967      5970      5973
      5969      5967      5970      5971      5969      5967      5970      5972
      5969      5967      5970      5973      5974      5977      5980      5981
      5974      5977      5980      5982      5974      5977      5980      5983
      5975      5974      5977      5978      5975      5974      5977      5979
      5975      5974      5977      5980      5976      5974      5977      5978
      5976      5974      5977      5979      5976      5974      5977      5980
      5977      5980      5983      5984      5977      5980      5983      5985
      5977      5980      5983      5986      5978      5977      5980      5981
      5978      5977      5980      5982      5978      5977      5980      5983
      5979      5977      5980      5981      5979      5977      5980      5982
      5979      5977      5980      5983      5980      5983      5986      5987
      5980      5983      5986      5988      5980      5983      5986      5989
      5981      5980      5983      5984      5981      5980      5983      5985
      5981      5980      5983      5986      5982      5980      5983      5984
      5982      5980      5983      5985      5982      5980      5983      5986
      5983      5986      5989      5990      5983      5986      5989      5991
      5983      5986      5989      5992      5984      5983      5986      5987
      5984      5983      5986      5988      5984      5983      5986      5989
      5985      5983      5986      5987      5985      5983      5986      5988
      5985      5983      5986      5989      5986      5989      5992      5993
      5986      5989      5992      5994      5987      5986      5989      5990
      5987      5986      5989      5991      5987      5986      5989      5992
      5988      5986      5989      5990      5988      5986      5989      5991
      5988      5986      5989      5992      5989      5992      5994      5995
      5989      5992      5994      5996      5990      5989      5992      5993
      5990      5989      5992      5994      5991      5989      5992      5993
      5991      5989      5992      5994      5992      5994      5996      5997
      5992      5994      5996      5998      5992      5994      5996      5999
      5993      5992      5994      5995      5993      5992      5994      5996
      5994      5996      5999      6000      5994      5996      5999      6001
      5994      5996      5999      6002      5995      5994      5996      5997
      5995      5994      5996      5998      5995      5994      5996      5999
      5996      5999      6002      6003      5996      5999      6002      6004
      5996      5999      6002      6005      5997      5996      5999      6000
      5997      5996      5999      6001      5997      5996      5999      6002
      5998      5996      5999      6000      5998      5996      5999      6001
      5998      5996      5999      6002      5999      6002      6005      6006
      5999      6002      6005      6007      5999      6002      6005      6008
      6000      5999      6002      6003      6000      5999      6002      6004
      6000      5999      6002      6005      6001      5999      6002      6003
      6001      5999      6002      6004      6001      5999      6002      6005
      6002      6005      6008      6009      6002      6005      6008      6010
      6002      6005      6008      6011      6003      6002      6005      6006
      6003      6002      6005      6007      6003      6002      6005      6008
      6004      6002      6005      6006      6004      6002      6005      6007
      6004      6002      6005      6008      6005      6008      6011      6012
      6005      6008      6011      6013      6005      6008      6011      6014
      6006      6005      6008      6009      6006      6005      6008      6010
      6006      6005      6008      6011      6007      6005      6008      6009
      6007      6005      6008      6010      6007      6005      6008      6011
      6008      6011      6014      6015      6008      6011      6014      6016
      6008      6011      6014      6017      6009      6008      6011      6012
      6009      6008      6011      6013      6009      6008      6011      6014
      6010      6008      6011      6012      6010      6008      6011      6013
      6010      6008      6011      6014      6011      6014      6017      6018
      6011      6014      6017      6019      6011      6014      6017      6020
      6012      6011      6014      6015      6012      6011      6014      6016
      6012      6011      6014      6017      6013      6011      6014      6015
      6013      6011      6014      6016      6013      6011      6014      6017
      6015      6014      6017      6018      6015      6014      6017      6019
      6015      6014      6017      6020      6016      6014      6017      6018
      6016      6014      6017      6019      6016      6014      6017      6020
      6021      6022      6037      6038      6021      6022      6037      6039
      6021      6022      6037      6043      6022      6021      6025      6026
      6022      6021      6025      6027      6022      6021      6025      6028
      6022      6021      6029      6030      6022      6021      6029      6031
      6022      6021      6029      6032      6022      6021      6033      6034
      6022      6021      6033      6035      6022      6021      6033      6036
      6022      6037      6043      6040      6023      6022      6021      6025
      6023      6022      6021      6029      6023      6022      6021      6033
      6023      6022      6037      6038      6023      6022      6037      6039
      6023      6022      6037      6043      6024      6022      6021      6025
      6024      6022      6021      6029      6024      6022      6021      6033
      6024      6022      6037      6038      6024      6022      6037      6039
      6024      6022      6037      6043      6025      6021      6022      6037
      6025      6021      6029      6030      6025      6021      6029      6031
      6025      6021      6029      6032      6025      6021      6033      6034
      6025      6021      6033      6035      6025      6021      6033      6036
      6026      6025      6021      6029      6026      6025      6021      6033
      6027      6025      6021      6029      6027      6025      6021      6033
      6028      6025      6021      6029      6028      6025      6021      6033
      6029      6021      6022      6037      6029      6021      6033      6034
      6029      6021      6033      6035      6029      6021      6033      6036
      6030      6029      6021      6033      6031      6029      6021      6033
      6032      6029      6021      6033      6033      6021      6022      6037
      6037      6043      6040      6041      6037      6043      6040      6042
      6037      6043      6040      6044      6038      6037      6043      6040
      6039      6037      6043      6040      6040      6044      6045      6046
      6040      6044      6045      6047      6040      6044      6045      6048
      6041      6040      6044      6045      6042      6040      6044      6045
      6043      6040      6044      6045      6044      6045      6048      6049
      6044      6045      6048      6050      6044      6045      6048      6056
      6045      6048      6050      6051      6045      6048      6056      6057
      6045      6048      6056      6058      6045      6048      6056      6059
      6046      6045      6048      6049      6046      6045      6048      6050
      6046      6045      6048      6056      6047      6045      6048      6049
      6047      6045      6048      6050      6047      6045      6048      6056
      6048      6050      6051      6052      6048      6050      6051      6053
      6048      6056      6059      6060      6049      6048      6050      6051
      6049      6048      6056      6057      6049      6048      6056      6058
      6049      6048      6056      6059      6050      6048      6056      6057
      6050      6048      6056      6058      6050      6048      6056      6059
      6050      6051      6053      6054      6050      6051      6053      6055
      6050      6051      6053      6065      6051      6050      6048      6056
      6051      6053      6065      6066      6051      6053      6065      6067
      6051      6053      6065      6068      6052      6051      6053      6054
      6052      6051      6053      6055      6052      6051      6053      6065
      6053      6065      6068      6069      6053      6065      6068      6070
      6053      6065      6068      6071      6054      6053      6065      6066
      6054      6053      6065      6067      6054      6053      6065      6068
      6055      6053      6065      6066      6055      6053      6065      6067
      6055      6053      6065      6068      6056      6059      6060      6061
      6056      6059      6060      6062      6057      6056      6059      6060
      6058      6056      6059      6060      6059      6060      6062      6063
      6059      6060      6062      6064      6059      6060      6062      6112
      6060      6062      6112      6113      6060      6062      6112      6114
      6060      6062      6112      6115      6061      6060      6062      6063
      6061      6060      6062      6064      6061      6060      6062      6112
      6062      6112      6115      6116      6062      6112      6115      6117
      6062      6112      6115      6118      6063      6062      6112      6113
      6063      6062      6112      6114      6063      6062      6112      6115
      6064      6062      6112      6113      6064      6062      6112      6114
      6064      6062      6112      6115      6065      6068      6071      6072
      6065      6068      6071      6073      6065      6068      6071      6074
      6066      6065      6068      6069      6066      6065      6068      6070
      6066      6065      6068      6071      6067      6065      6068      6069
      6067      6065      6068      6070      6067      6065      6068      6071
      6068      6071      6074      6075      6068      6071      6074      6076
      6068      6071      6074      6077      6069      6068      6071      6072
      6069      6068      6071      6073      6069      6068      6071      6074
      6070      6068      6071      6072      6070      6068      6071      6073
      6070      6068      6071      6074      6071      6074      6077      6078
      6071      6074      6077      6079      6071      6074      6077      6080
      6072      6071      6074      6075      6072      6071      6074      6076
      6072      6071      6074      6077      6073      6071      6074      6075
      6073      6071      6074      6076      6073      6071      6074      6077
      6074      6077      6080      6081      6074      6077      6080      6082
      6074      6077      6080      6083      6075      6074      6077      6078
      6075      6074      6077      6079      6075      6074      6077      6080
      6076      6074      6077      6078      6076      6074      6077      6079
      6076      6074      6077      6080      6077      6080      6083      6084
      6077      6080      6083      6085      6078      6077      6080      6081
      6078      6077      6080      6082      6078      6077      6080      6083
      6079      6077      6080      6081      6079      6077      6080      6082
      6079      6077      6080      6083      6080      6083      6085      6086
      6080      6083      6085      6087      6081      6080      6083      6084
      6081      6080      6083      6085      6082      6080      6083      6084
      6082      6080      6083      6085      6083      6085      6087      6088
      6083      6085      6087      6089      6083      6085      6087      6090
      6084      6083      6085      6086      6084      6083      6085      6087
      6085      6087      6090      6091      6085      6087      6090      6092
      6085      6087      6090      6093      6086      6085      6087      6088
      6086      6085      6087      6089      6086      6085      6087      6090
      6087      6090      6093      6094      6087      6090      6093      6095
      6087      6090      6093      6096      6088      6087      6090      6091
      6088      6087      6090      6092      6088      6087      6090      6093
      6089      6087      6090      6091      6089      6087      6090      6092
      6089      6087      6090      6093      6090      6093      6096      6097
      6090      6093      6096      6098      6090      6093      6096      6099
      6091      6090      6093      6094      6091      6090      6093      6095
      6091      6090      6093      6096      6092      6090      6093      6094
      6092      6090      6093      6095      6092      6090      6093      6096
      6093      6096      6099      6100      6093      6096      6099      6101
      6093      6096      6099      6102      6094      6093      6096      6097
      6094      6093      6096      6098      6094      6093      6096      6099
      6095      6093      6096      6097      6095      6093      6096      6098
      6095      6093      6096      6099      6096      6099      6102      6103
      6096      6099      6102      6104      6096      6099      6102      6105
      6097      6096      6099      6100      6097      6096      6099      6101
      6097      6096      6099      6102      6098      6096      6099      6100
      6098      6096      6099      6101      6098      6096      6099      6102
      6099      6102      6105      6106      6099      6102      6105      6107
      6099      6102      6105      6108      6100      6099      6102      6103
      6100      6099      6102      6104      6100      6099      6102      6105
      6101      6099      6102      6103      6101      6099      6102      6104
      6101      6099      6102      6105      6102      6105      6108      6109
      6102      6105      6108      6110      6102      6105      6108      6111
      6103      6102      6105      6106      6103      6102      6105      6107
      6103      6102      6105      6108      6104      6102      6105      6106
      6104      6102      6105      6107      6104      6102      6105      6108
      6106      6105      6108      6109      6106      6105      6108      6110
      6106      6105      6108      6111      6107      6105      6108      6109
      6107      6105      6108      6110      6107      6105      6108      6111
      6112      6115      6118      6119      6112      6115      6118      6120
      6112      6115      6118      6121      6113      6112      6115      6116
      6113      6112      6115      6117      6113      6112      6115      6118
      6114      6112      6115      6116      6114      6112      6115      6117
      6114      6112      6115      6118      6115      6118      6121      6122
      6115      6118      6121      6123      6115      6118      6121      6124
      6116      6115      6118      6119      6116      6115      6118      6120
      6116      6115      6118      6121      6117      6115      6118      6119
      6117      6115      6118      6120      6117      6115      6118      6121
      6118      6121      6124      6125      6118      6121      6124      6126
      6118      6121      6124      6127      6119      6118      6121      6122
      6119      6118      6121      6123      6119      6118      6121      6124
      6120      6118      6121      6122      6120      6118      6121      6123
      6120      6118      6121      6124      6121      6124      6127      6128
      6121      6124      6127      6129      6121      6124      6127      6130
      6122      6121      6124      6125      6122      6121      6124      6126
      6122      6121      6124      6127      6123      6121      6124      6125
      6123      6121      6124      6126      6123      6121      6124      6127
      6124      6127      6130      6131      6124      6127      6130      6132
      6125      6124      6127      6128      6125      6124      6127      6129
      6125      6124      6127      6130      6126      6124      6127      6128
      6126      6124      6127      6129      6126      6124      6127      6130
      6127      6130      6132      6133      6127      6130      6132      6134
      6128      6127      6130      6131      6128      6127      6130      6132
      6129      6127      6130      6131      6129      6127      6130      6132
      6130      6132      6134      6135      6130      6132      6134      6136
      6130      6132      6134      6137      6131      6130      6132      6133
      6131      6130      6132      6134      6132      6134      6137      6138
      6132      6134      6137      6139      6132      6134      6137      6140
      6133      6132      6134      6135      6133      6132      6134      6136
      6133      6132      6134      6137      6134      6137      6140      6141
      6134      6137      6140      6142      6134      6137      6140      6143
      6135      6134      6137      6138      6135      6134      6137      6139
      6135      6134      6137      6140      6136      6134      6137      6138
      6136      6134      6137      6139      6136      6134      6137      6140
      6137      6140      6143      6144      6137      6140      6143      6145
      6137      6140      6143      6146      6138      6137      6140      6141
      6138      6137      6140      6142      6138      6137      6140      6143
      6139      6137      6140      6141      6139      6137      6140      6142
      6139      6137      6140      6143      6140      6143      6146      6147
      6140      6143      6146      6148      6140      6143      6146      6149
      6141      6140      6143      6144      6141      6140      6143      6145
      6141      6140      6143      6146      6142      6140      6143      6144
      6142      6140      6143      6145      6142      6140      6143      6146
      6143      6146      6149      6150      6143      6146      6149      6151
      6143      6146      6149      6152      6144      6143      6146      6147
      6144      6143      6146      6148      6144      6143      6146      6149
      6145      6143      6146      6147      6145      6143      6146      6148
      6145      6143      6146      6149      6146      6149      6152      6153
      6146      6149      6152      6154      6146      6149      6152      6155
      6147      6146      6149      6150      6147      6146      6149      6151
      6147      6146      6149      6152      6148      6146      6149      6150
      6148      6146      6149      6151      6148      6146      6149      6152
      6149      6152      6155      6156      6149      6152      6155      6157
      6149      6152      6155      6158      6150      6149      6152      6153
      6150      6149      6152      6154      6150      6149      6152      6155
      6151      6149      6152      6153      6151      6149      6152      6154
      6151      6149      6152      6155      6153      6152      6155      6156
      6153      6152      6155      6157      6153      6152      6155      6158
      6154      6152      6155      6156      6154      6152      6155      6157
      6154      6152      6155      6158      6159      6160      6175      6176
      6159      6160      6175      6177      6159      6160      6175      6181
      6160      6159      6163      6164      6160      6159      6163      6165
      6160      6159      6163      6166      6160      6159      6167      6168
      6160      6159      6167      6169      6160      6159      6167      6170
      6160      6159      6171      6172      6160      6159      6171      6173
      6160      6159      6171      6174      6160      6175      6181      6178
      6161      6160      6159      6163      6161      6160      6159      6167
      6161      6160      6159      6171      6161      6160      6175      6176
      6161      6160      6175      6177      6161      6160      6175      6181
      6162      6160      6159      6163      6162      6160      6159      6167
      6162      6160      6159      6171      6162      6160      6175      6176
      6162      6160      6175      6177      6162      6160      6175      6181
      6163      6159      6160      6175      6163      6159      6167      6168
      6163      6159      6167      6169      6163      6159      6167      6170
      6163      6159      6171      6172      6163      6159      6171      6173
      6163      6159      6171      6174      6164      6163      6159      6167
      6164      6163      6159      6171      6165      6163      6159      6167
      6165      6163      6159      6171      6166      6163      6159      6167
      6166      6163      6159      6171      6167      6159      6160      6175
      6167      6159      6171      6172      6167      6159      6171      6173
      6167      6159      6171      6174      6168      6167      6159      6171
      6169      6167      6159      6171      6170      6167      6159      6171
      6171      6159      6160      6175      6175      6181      6178      6179
      6175      6181      6178      6180      6175      6181      6178      6182
      6176      6175      6181      6178      6177      6175      6181      6178
      6178      6182      6183      6184      6178      6182      6183      6185
      6178      6182      6183      6186      6179      6178      6182      6183
      6180      6178      6182      6183      6181      6178      6182      6183
      6182      6183      6186      6187      6182      6183      6186      6188
      6182      6183      6186      6194      6183      6186      6188      6189
      6183      6186      6194      6195      6183      6186      6194      6196
      6183      6186      6194      6197      6184      6183      6186      6187
      6184      6183      6186      6188      6184      6183      6186      6194
      6185      6183      6186      6187      6185      6183      6186      6188
      6185      6183      6186      6194      6186      6188      6189      6190
      6186      6188      6189      6191      6186      6194      6197      6198
      6187      6186      6188      6189      6187      6186      6194      6195
      6187      6186      6194      6196      6187      6186      6194      6197
      6188      6186      6194      6195      6188      6186      6194      6196
      6188      6186      6194      6197      6188      6189      6191      6192
      6188      6189      6191      6193      6188      6189      6191      6203
      6189      6188      6186      6194      6189      6191      6203      6204
      6189      6191      6203      6205      6189      6191      6203      6206
      6190      6189      6191      6192      6190      6189      6191      6193
      6190      6189      6191      6203      6191      6203      6206      6207
      6191      6203      6206      6208      6191      6203      6206      6209
      6192      6191      6203      6204      6192      6191      6203      6205
      6192      6191      6203      6206      6193      6191      6203      6204
      6193      6191      6203      6205      6193      6191      6203      6206
      6194      6197      6198      6199      6194      6197      6198      6200
      6195      6194      6197      6198      6196      6194      6197      6198
      6197      6198      6200      6201      6197      6198      6200      6202
      6197      6198      6200      6250      6198      6200      6250      6251
      6198      6200      6250      6252      6198      6200      6250      6253
      6199      6198      6200      6201      6199      6198      6200      6202
      6199      6198      6200      6250      6200      6250      6253      6254
      6200      6250      6253      6255      6200      6250      6253      6256
      6201      6200      6250      6251      6201      6200      6250      6252
      6201      6200      6250      6253      6202      6200      6250      6251
      6202      6200      6250      6252      6202      6200      6250      6253
      6203      6206      6209      6210      6203      6206      6209      6211
      6203      6206      6209      6212      6204      6203      6206      6207
      6204      6203      6206      6208      6204      6203      6206      6209
      6205      6203      6206      6207      6205      6203      6206      6208
      6205      6203      6206      6209      6206      6209      6212      6213
      6206      6209      6212      6214      6206      6209      6212      6215
      6207      6206      6209      6210      6207      6206      6209      6211
      6207      6206      6209      6212      6208      6206      6209      6210
      6208      6206      6209      6211      6208      6206      6209      6212
      6209      6212      6215      6216      6209      6212      6215      6217
      6209      6212      6215      6218      6210      6209      6212      6213
      6210      6209      6212      6214      6210      6209      6212      6215
      6211      6209      6212      6213      6211      6209      6212      6214
      6211      6209      6212      6215      6212      6215      6218      6219
      6212      6215      6218      6220      6212      6215      6218      6221
      6213      6212      6215      6216      6213      6212      6215      6217
      6213      6212      6215      6218      6214      6212      6215      6216
      6214      6212      6215      6217      6214      6212      6215      6218
      6215      6218      6221      6222      6215      6218      6221      6223
      6216      6215      6218      6219      6216      6215      6218      6220
      6216      6215      6218      6221      6217      6215      6218      6219
      6217      6215      6218      6220      6217      6215      6218      6221
      6218      6221      6223      6224      6218      6221      6223      6225
      6219      6218      6221      6222      6219      6218      6221      6223
      6220      6218      6221      6222      6220      6218      6221      6223
      6221      6223      6225      6226      6221      6223      6225      6227
      6221      6223      6225      6228      6222      6221      6223      6224
      6222      6221      6223      6225      6223      6225      6228      6229
      6223      6225      6228      6230      6223      6225      6228      6231
      6224      6223      6225      6226      6224      6223      6225      6227
      6224      6223      6225      6228      6225      6228      6231      6232
      6225      6228      6231      6233      6225      6228      6231      6234
      6226      6225      6228      6229      6226      6225      6228      6230
      6226      6225      6228      6231      6227      6225      6228      6229
      6227      6225      6228      6230      6227      6225      6228      6231
      6228      6231      6234      6235      6228      6231      6234      6236
      6228      6231      6234      6237      6229      6228      6231      6232
      6229      6228      6231      6233      6229      6228      6231      6234
      6230      6228      6231      6232      6230      6228      6231      6233
      6230      6228      6231      6234      6231      6234      6237      6238
      6231      6234      6237      6239      6231      6234      6237      6240
      6232      6231      6234      6235      6232      6231      6234      6236
      6232      6231      6234      6237      6233      6231      6234      6235
      6233      6231      6234      6236      6233      6231      6234      6237
      6234      6237      6240      6241      6234      6237      6240      6242
      6234      6237      6240      6243      6235      6234      6237      6238
      6235      6234      6237      6239      6235      6234      6237      6240
      6236      6234      6237      6238      6236      6234      6237      6239
      6236      6234      6237      6240      6237      6240      6243      6244
      6237      6240      6243      6245      6237      6240      6243      6246
      6238      6237      6240      6241      6238      6237      6240      6242
      6238      6237      6240      6243      6239      6237      6240      6241
      6239      6237      6240      6242      6239      6237      6240      6243
      6240      6243      6246      6247      6240      6243      6246      6248
      6240      6243      6246      6249      6241      6240      6243      6244
      6241      6240      6243      6245      6241      6240      6243      6246
      6242      6240      6243      6244      6242      6240      6243      6245
      6242      6240      6243      6246      6244      6243      6246      6247
      6244      6243      6246      6248      6244      6243      6246      6249
      6245      6243      6246      6247      6245      6243      6246      6248
      6245      6243      6246      6249      6250      6253      6256      6257
      6250      6253      6256      6258      6250      6253      6256      6259
      6251      6250      6253      6254      6251      6250      6253      6255
      6251      6250      6253      6256      6252      6250      6253      6254
      6252      6250      6253      6255      6252      6250      6253      6256
      6253      6256      6259      6260      6253      6256      6259      6261
      6253      6256      6259      6262      6254      6253      6256      6257
      6254      6253      6256      6258      6254      6253      6256      6259
      6255      6253      6256      6257      6255      6253      6256      6258
      6255      6253      6256      6259      6256      6259      6262      6263
      6256      6259      6262      6264      6256      6259      6262      6265
      6257      6256      6259      6260      6257      6256      6259      6261
      6257      6256      6259      6262      6258      6256      6259      6260
      6258      6256      6259      6261      6258      6256      6259      6262
      6259      6262      6265      6266      6259      6262      6265      6267
      6259      6262      6265      6268      6260      6259      6262      6263
      6260      6259      6262      6264      6260      6259      6262      6265
      6261      6259      6262      6263      6261      6259      6262      6264
      6261      6259      6262      6265      6262      6265      6268      6269
      6262      6265      6268      6270      6263      6262      6265      6266
      6263      6262      6265      6267      6263      6262      6265      6268
      6264      6262      6265      6266      6264      6262      6265      6267
      6264      6262      6265      6268      6265      6268      6270      6271
      6265      6268      6270      6272      6266      6265      6268      6269
      6266      6265      6268      6270      6267      6265      6268      6269
      6267      6265      6268      6270      6268      6270      6272      6273
      6268      6270      6272      6274      6268      6270      6272      6275
      6269      6268      6270      6271      6269      6268      6270      6272
      6270      6272      6275      6276      6270      6272      6275      6277
      6270      6272      6275      6278      6271      6270      6272      6273
      6271      6270      6272      6274      6271      6270      6272      6275
      6272      6275      6278      6279      6272      6275      6278      6280
      6272      6275      6278      6281      6273      6272      6275      6276
      6273      6272      6275      6277      6273      6272      6275      6278
      6274      6272      6275      6276      6274      6272      6275      6277
      6274      6272      6275      6278      6275      6278      6281      6282
      6275      6278      6281      6283      6275      6278      6281      6284
      6276      6275      6278      6279      6276      6275      6278      6280
      6276      6275      6278      6281      6277      6275      6278      6279
      6277      6275      6278      6280      6277      6275      6278      6281
      6278      6281      6284      6285      6278      6281      6284      6286
      6278      6281      6284      6287      6279      6278      6281      6282
      6279      6278      6281      6283      6279      6278      6281      6284
      6280      6278      6281      6282      6280      6278      6281      6283
      6280      6278      6281      6284      6281      6284      6287      6288
      6281      6284      6287      6289      6281      6284      6287      6290
      6282      6281      6284      6285      6282      6281      6284      6286
      6282      6281      6284      6287      6283      6281      6284      6285
      6283      6281      6284      6286      6283      6281      6284      6287
      6284      6287      6290      6291      6284      6287      6290      6292
      6284      6287      6290      6293      6285      6284      6287      6288
      6285      6284      6287      6289      6285      6284      6287      6290
      6286      6284      6287      6288      6286      6284      6287      6289
      6286      6284      6287      6290      6287      6290      6293      6294
      6287      6290      6293      6295      6287      6290      6293      6296
      6288      6287      6290      6291      6288      6287      6290      6292
      6288      6287      6290      6293      6289      6287      6290      6291
      6289      6287      6290      6292      6289      6287      6290      6293
      6291      6290      6293      6294      6291      6290      6293      6295
      6291      6290      6293      6296      6292      6290      6293      6294
      6292      6290      6293      6295      6292      6290      6293      6296
      6297      6298      6313      6314      6297      6298      6313      6315
      6297      6298      6313      6319      6298      6297      6301      6302
      6298      6297      6301      6303      6298      6297      6301      6304
      6298      6297      6305      6306      6298      6297      6305      6307
      6298      6297      6305      6308      6298      6297      6309      6310
      6298      6297      6309      6311      6298      6297      6309      6312
      6298      6313      6319      6316      6299      6298      6297      6301
      6299      6298      6297      6305      6299      6298      6297      6309
      6299      6298      6313      6314      6299      6298      6313      6315
      6299      6298      6313      6319      6300      6298      6297      6301
      6300      6298      6297      6305      6300      6298      6297      6309
      6300      6298      6313      6314      6300      6298      6313      6315
      6300      6298      6313      6319      6301      6297      6298      6313
      6301      6297      6305      6306      6301      6297      6305      6307
      6301      6297      6305      6308      6301      6297      6309      6310
      6301      6297      6309      6311      6301      6297      6309      6312
      6302      6301      6297      6305      6302      6301      6297      6309
      6303      6301      6297      6305      6303      6301      6297      6309
      6304      6301      6297      6305      6304      6301      6297      6309
      6305      6297      6298      6313      6305      6297      6309      6310
      6305      6297      6309      6311      6305      6297      6309      6312
      6306      6305      6297      6309      6307      6305      6297      6309
      6308      6305      6297      6309      6309      6297      6298      6313
      6313      6319      6316      6317      6313      6319      6316      6318
      6313      6319      6316      6320      6314      6313      6319      6316
      6315      6313      6319      6316      6316      6320      6321      6322
      6316      6320      6321      6323      6316      6320      6321      6324
      6317      6316      6320      6321      6318      6316      6320      6321
      6319      6316      6320      6321      6320      6321      6324      6325
      6320      6321      6324      6326      6320      6321      6324      6332
      6321      6324      6326      6327      6321      6324      6332      6333
      6321      6324      6332      6334      6321      6324      6332      6335
      6322      6321      6324      6325      6322      6321      6324      6326
      6322      6321      6324      6332      6323      6321      6324      6325
      6323      6321      6324      6326      6323      6321      6324      6332
      6324      6326      6327      6328      6324      6326      6327      6329
      6324      6332      6335      6336      6325      6324      6326      6327
      6325      6324      6332      6333      6325      6324      6332      6334
      6325      6324      6332      6335      6326      6324      6332      6333
      6326      6324      6332      6334      6326      6324      6332      6335
      6326      6327      6329      6330      6326      6327      6329      6331
      6326      6327      6329      6341      6327      6326      6324      6332
      6327      6329      6341      6342      6327      6329      6341      6343
      6327      6329      6341      6344      6328      6327      6329      6330
      6328      6327      6329      6331      6328      6327      6329      6341
      6329      6341      6344      6345      6329      6341      6344      6346
      6329      6341      6344      6347      6330      6329      6341      6342
      6330      6329      6341      6343      6330      6329      6341      6344
      6331      6329      6341      6342      6331      6329      6341      6343
      6331      6329      6341      6344      6332      6335      6336      6337
      6332      6335      6336      6338      6333      6332      6335      6336
      6334      6332      6335      6336      6335      6336      6338      6339
      6335      6336      6338      6340      6335      6336      6338      6388
      6336      6338      6388      6389      6336      6338      6388      6390
      6336      6338      6388      6391      6337      6336      6338      6339
      6337      6336      6338      6340      6337      6336      6338      6388
      6338      6388      6391      6392      6338      6388      6391      6393
      6338      6388      6391      6394      6339      6338      6388      6389
      6339      6338      6388      6390      6339      6338      6388      6391
      6340      6338      6388      6389      6340      6338      6388      6390
      6340      6338      6388      6391      6341      6344      6347      6348
      6341      6344      6347      6349      6341      6344      6347      6350
      6342      6341      6344      6345      6342      6341      6344      6346
      6342      6341      6344      6347      6343      6341      6344      6345
      6343      6341      6344      6346      6343      6341      6344      6347
      6344      6347      6350      6351      6344      6347      6350      6352
      6344      6347      6350      6353      6345      6344      6347      6348
      6345      6344      6347      6349      6345      6344      6347      6350
      6346      6344      6347      6348      6346      6344      6347      6349
      6346      6344      6347      6350      6347      6350      6353      6354
      6347      6350      6353      6355      6347      6350      6353      6356
      6348      6347      6350      6351      6348      6347      6350      6352
      6348      6347      6350      6353      6349      6347      6350      6351
      6349      6347      6350      6352      6349      6347      6350      6353
      6350      6353      6356      6357      6350      6353      6356      6358
      6350      6353      6356      6359      6351      6350      6353      6354
      6351      6350      6353      6355      6351      6350      6353      6356
      6352      6350      6353      6354      6352      6350      6353      6355
      6352      6350      6353      6356      6353      6356      6359      6360
      6353      6356      6359      6361      6354      6353      6356      6357
      6354      6353      6356      6358      6354      6353      6356      6359
      6355      6353      6356      6357      6355      6353      6356      6358
      6355      6353      6356      6359      6356      6359      6361      6362
      6356      6359      6361      6363      6357      6356      6359      6360
      6357      6356      6359      6361      6358      6356      6359      6360
      6358      6356      6359      6361      6359      6361      6363      6364
      6359      6361      6363      6365      6359      6361      6363      6366
      6360      6359      6361      6362      6360      6359      6361      6363
      6361      6363      6366      6367      6361      6363      6366      6368
      6361      6363      6366      6369      6362      6361      6363      6364
      6362      6361      6363      6365      6362      6361      6363      6366
      6363      6366      6369      6370      6363      6366      6369      6371
      6363      6366      6369      6372      6364      6363      6366      6367
      6364      6363      6366      6368      6364      6363      6366      6369
      6365      6363      6366      6367      6365      6363      6366      6368
      6365      6363      6366      6369      6366      6369      6372      6373
      6366      6369      6372      6374      6366      6369      6372      6375
      6367      6366      6369      6370      6367      6366      6369      6371
      6367      6366      6369      6372      6368      6366      6369      6370
      6368      6366      6369      6371      6368      6366      6369      6372
      6369      6372      6375      6376      6369      6372      6375      6377
      6369      6372      6375      6378      6370      6369      6372      6373
      6370      6369      6372      6374      6370      6369      6372      6375
      6371      6369      6372      6373      6371      6369      6372      6374
      6371      6369      6372      6375      6372      6375      6378      6379
      6372      6375      6378      6380      6372      6375      6378      6381
      6373      6372      6375      6376      6373      6372      6375      6377
      6373      6372      6375      6378      6374      6372      6375      6376
      6374      6372      6375      6377      6374      6372      6375      6378
      6375      6378      6381      6382      6375      6378      6381      6383
      6375      6378      6381      6384      6376      6375      6378      6379
      6376      6375      6378      6380      6376      6375      6378      6381
      6377      6375      6378      6379      6377      6375      6378      6380
      6377      6375      6378      6381      6378      6381      6384      6385
      6378      6381      6384      6386      6378      6381      6384      6387
      6379      6378      6381      6382      6379      6378      6381      6383
      6379      6378      6381      6384      6380      6378      6381      6382
      6380      6378      6381      6383      6380      6378      6381      6384
      6382      6381      6384      6385      6382      6381      6384      6386
      6382      6381      6384      6387      6383      6381      6384      6385
      6383      6381      6384      6386      6383      6381      6384      6387
      6388      6391      6394      6395      6388      6391      6394      6396
      6388      6391      6394      6397      6389      6388      6391      6392
      6389      6388      6391      6393      6389      6388      6391      6394
      6390      6388      6391      6392      6390      6388      6391      6393
      6390      6388      6391      6394      6391      6394      6397      6398
      6391      6394      6397      6399      6391      6394      6397      6400
      6392      6391      6394      6395      6392      6391      6394      6396
      6392      6391      6394      6397      6393      6391      6394      6395
      6393      6391      6394      6396      6393      6391      6394      6397
      6394      6397      6400      6401      6394      6397      6400      6402
      6394      6397      6400      6403      6395      6394      6397      6398
      6395      6394      6397      6399      6395      6394      6397      6400
      6396      6394      6397      6398      6396      6394      6397      6399
      6396      6394      6397      6400      6397      6400      6403      6404
      6397      6400      6403      6405      6397      6400      6403      6406
      6398      6397      6400      6401      6398      6397      6400      6402
      6398      6397      6400      6403      6399      6397      6400      6401
      6399      6397      6400      6402      6399      6397      6400      6403
      6400      6403      6406      6407      6400      6403      6406      6408
      6401      6400      6403      6404      6401      6400      6403      6405
      6401      6400      6403      6406      6402      6400      6403      6404
      6402      6400      6403      6405      6402      6400      6403      6406
      6403      6406      6408      6409      6403      6406      6408      6410
      6404      6403      6406      6407      6404      6403      6406      6408
      6405      6403      6406      6407      6405      6403      6406      6408
      6406      6408      6410      6411      6406      6408      6410      6412
      6406      6408      6410      6413      6407      6406      6408      6409
      6407      6406      6408      6410      6408      6410      6413      6414
      6408      6410      6413      6415      6408      6410      6413      6416
      6409      6408      6410      6411      6409      6408      6410      6412
      6409      6408      6410      6413      6410      6413      6416      6417
      6410      6413      6416      6418      6410      6413      6416      6419
      6411      6410      6413      6414      6411      6410      6413      6415
      6411      6410      6413      6416      6412      6410      6413      6414
      6412      6410      6413      6415      6412      6410      6413      6416
      6413      6416      6419      6420      6413      6416      6419      6421
      6413      6416      6419      6422      6414      6413      6416      6417
      6414      6413      6416      6418      6414      6413      6416      6419
      6415      6413      6416      6417      6415      6413      6416      6418
      6415      6413      6416      6419      6416      6419      6422      6423
      6416      6419      6422      6424      6416      6419      6422      6425
      6417      6416      6419      6420      6417      6416      6419      6421
      6417      6416      6419      6422      6418      6416      6419      6420
      6418      6416      6419      6421      6418      6416      6419      6422
      6419      6422      6425      6426      6419      6422      6425      6427
      6419      6422      6425      6428      6420      6419      6422      6423
      6420      6419      6422      6424      6420      6419      6422      6425
      6421      6419      6422      6423      6421      6419      6422      6424
      6421      6419      6422      6425      6422      6425      6428      6429
      6422      6425      6428      6430      6422      6425      6428      6431
      6423      6422      6425      6426      6423      6422      6425      6427
      6423      6422      6425      6428      6424      6422      6425      6426
      6424      6422      6425      6427      6424      6422      6425      6428
      6425      6428      6431      6432      6425      6428      6431      6433
      6425      6428      6431      6434      6426      6425      6428      6429
      6426      6425      6428      6430      6426      6425      6428      6431
      6427      6425      6428      6429      6427      6425      6428      6430
      6427      6425      6428      6431      6429      6428      6431      6432
      6429      6428      6431      6433      6429      6428      6431      6434
      6430      6428      6431      6432      6430      6428      6431      6433
      6430      6428      6431      6434      6435      6436      6451      6452
      6435      6436      6451      6453      6435      6436      6451      6457
      6436      6435      6439      6440      6436      6435      6439      6441
      6436      6435      6439      6442      6436      6435      6443      6444
      6436      6435      6443      6445      6436      6435      6443      6446
      6436      6435      6447      6448      6436      6435      6447      6449
      6436      6435      6447      6450      6436      6451      6457      6454
      6437      6436      6435      6439      6437      6436      6435      6443
      6437      6436      6435      6447      6437      6436      6451      6452
      6437      6436      6451      6453      6437      6436      6451      6457
      6438      6436      6435      6439      6438      6436      6435      6443
      6438      6436      6435      6447      6438      6436      6451      6452
      6438      6436      6451      6453      6438      6436      6451      6457
      6439      6435      6436      6451      6439      6435      6443      6444
      6439      6435      6443      6445      6439      6435      6443      6446
      6439      6435      6447      6448      6439      6435      6447      6449
      6439      6435      6447      6450      6440      6439      6435      6443
      6440      6439      6435      6447      6441      6439      6435      6443
      6441      6439      6435      6447      6442      6439      6435      6443
      6442      6439      6435      6447      6443      6435      6436      6451
      6443      6435      6447      6448      6443      6435      6447      6449
      6443      6435      6447      6450      6444      6443      6435      6447
      6445      6443      6435      6447      6446      6443      6435      6447
      6447      6435      6436      6451      6451      6457      6454      6455
      6451      6457      6454      6456      6451      6457      6454      6458
      6452      6451      6457      6454      6453      6451      6457      6454
      6454      6458      6459      6460      6454      6458      6459      6461
      6454      6458      6459      6462      6455      6454      6458      6459
      6456      6454      6458      6459      6457      6454      6458      6459
      6458      6459      6462      6463      6458      6459      6462      6464
      6458      6459      6462      6470      6459      6462      6464      6465
      6459      6462      6470      6471      6459      6462      6470      6472
      6459      6462      6470      6473      6460      6459      6462      6463
      6460      6459      6462      6464      6460      6459      6462      6470
      6461      6459      6462      6463      6461      6459      6462      6464
      6461      6459      6462      6470      6462      6464      6465      6466
      6462      6464      6465      6467      6462      6470      6473      6474
      6463      6462      6464      6465      6463      6462      6470      6471
      6463      6462      6470      6472      6463      6462      6470      6473
      6464      6462      6470      6471      6464      6462      6470      6472
      6464      6462      6470      6473      6464      6465      6467      6468
      6464      6465      6467      6469      6464      6465      6467      6479
      6465      6464      6462      6470      6465      6467      6479      6480
      6465      6467      6479      6481      6465      6467      6479      6482
      6466      6465      6467      6468      6466      6465      6467      6469
      6466      6465      6467      6479      6467      6479      6482      6483
      6467      6479      6482      6484      6467      6479      6482      6485
      6468      6467      6479      6480      6468      6467      6479      6481
      6468      6467      6479      6482      6469      6467      6479      6480
      6469      6467      6479      6481      6469      6467      6479      6482
      6470      6473      6474      6475      6470      6473      6474      6476
      6471      6470      6473      6474      6472      6470      6473      6474
      6473      6474      6476      6477      6473      6474      6476      6478
      6473      6474      6476      6526      6474      6476      6526      6527
      6474      6476      6526      6528      6474      6476      6526      6529
      6475      6474      6476      6477      6475      6474      6476      6478
      6475      6474      6476      6526      6476      6526      6529      6530
      6476      6526      6529      6531      6476      6526      6529      6532
      6477      6476      6526      6527      6477      6476      6526      6528
      6477      6476      6526      6529      6478      6476      6526      6527
      6478      6476      6526      6528      6478      6476      6526      6529
      6479      6482      6485      6486      6479      6482      6485      6487
      6479      6482      6485      6488      6480      6479      6482      6483
      6480      6479      6482      6484      6480      6479      6482      6485
      6481      6479      6482      6483      6481      6479      6482      6484
      6481      6479      6482      6485      6482      6485      6488      6489
      6482      6485      6488      6490      6482      6485      6488      6491
      6483      6482      6485      6486      6483      6482      6485      6487
      6483      6482      6485      6488      6484      6482      6485      6486
      6484      6482      6485      6487      6484      6482      6485      6488
      6485      6488      6491      6492      6485      6488      6491      6493
      6485      6488      6491      6494      6486      6485      6488      6489
      6486      6485      6488      6490      6486      6485      6488      6491
      6487      6485      6488      6489      6487      6485      6488      6490
      6487      6485      6488      6491      6488      6491      6494      6495
      6488      6491      6494      6496      6488      6491      6494      6497
      6489      6488      6491      6492      6489      6488      6491      6493
      6489      6488      6491      6494      6490      6488      6491      6492
      6490      6488      6491      6493      6490      6488      6491      6494
      6491      6494      6497      6498      6491      6494      6497      6499
      6492      6491      6494      6495      6492      6491      6494      6496
      6492      6491      6494      6497      6493      6491      6494      6495
      6493      6491      6494      6496      6493      6491      6494      6497
      6494      6497      6499      6500      6494      6497      6499      6501
      6495      6494      6497      6498      6495      6494      6497      6499
      6496      6494      6497      6498      6496      6494      6497      6499
      6497      6499      6501      6502      6497      6499      6501      6503
      6497      6499      6501      6504      6498      6497      6499      6500
      6498      6497      6499      6501      6499      6501      6504      6505
      6499      6501      6504      6506      6499      6501      6504      6507
      6500      6499      6501      6502      6500      6499      6501      6503
      6500      6499      6501      6504      6501      6504      6507      6508
      6501      6504      6507      6509      6501      6504      6507      6510
      6502      6501      6504      6505      6502      6501      6504      6506
      6502      6501      6504      6507      6503      6501      6504      6505
      6503      6501      6504      6506      6503      6501      6504      6507
      6504      6507      6510      6511      6504      6507      6510      6512
      6504      6507      6510      6513      6505      6504      6507      6508
      6505      6504      6507      6509      6505      6504      6507      6510
      6506      6504      6507      6508      6506      6504      6507      6509
      6506      6504      6507      6510      6507      6510      6513      6514
      6507      6510      6513      6515      6507      6510      6513      6516
      6508      6507      6510      6511      6508      6507      6510      6512
      6508      6507      6510      6513      6509      6507      6510      6511
      6509      6507      6510      6512      6509      6507      6510      6513
      6510      6513      6516      6517      6510      6513      6516      6518
      6510      6513      6516      6519      6511      6510      6513      6514
      6511      6510      6513      6515      6511      6510      6513      6516
      6512      6510      6513      6514      6512      6510      6513      6515
      6512      6510      6513      6516      6513      6516      6519      6520
      6513      6516      6519      6521      6513      6516      6519      6522
      6514      6513      6516      6517      6514      6513      6516      6518
      6514      6513      6516      6519      6515      6513      6516      6517
      6515      6513      6516      6518      6515      6513      6516      6519
      6516      6519      6522      6523      6516      6519      6522      6524
      6516      6519      6522      6525      6517      6516      6519      6520
      6517      6516      6519      6521      6517      6516      6519      6522
      6518      6516      6519      6520      6518      6516      6519      6521
      6518      6516      6519      6522      6520      6519      6522      6523
      6520      6519      6522      6524      6520      6519      6522      6525
      6521      6519      6522      6523      6521      6519      6522      6524
      6521      6519      6522      6525      6526      6529      6532      6533
      6526      6529      6532      6534      6526      6529      6532      6535
      6527      6526      6529      6530      6527      6526      6529      6531
      6527      6526      6529      6532      6528      6526      6529      6530
      6528      6526      6529      6531      6528      6526      6529      6532
      6529      6532      6535      6536      6529      6532      6535      6537
      6529      6532      6535      6538      6530      6529      6532      6533
      6530      6529      6532      6534      6530      6529      6532      6535
      6531      6529      6532      6533      6531      6529      6532      6534
      6531      6529      6532      6535      6532      6535      6538      6539
      6532      6535      6538      6540      6532      6535      6538      6541
      6533      6532      6535      6536      6533      6532      6535      6537
      6533      6532      6535      6538      6534      6532      6535      6536
      6534      6532      6535      6537      6534      6532      6535      6538
      6535      6538      6541      6542      6535      6538      6541      6543
      6535      6538      6541      6544      6536      6535      6538      6539
      6536      6535      6538      6540      6536      6535      6538      6541
      6537      6535      6538      6539      6537      6535      6538      6540
      6537      6535      6538      6541      6538      6541      6544      6545
      6538      6541      6544      6546      6539      6538      6541      6542
      6539      6538      6541      6543      6539      6538      6541      6544
      6540      6538      6541      6542      6540      6538      6541      6543
      6540      6538      6541      6544      6541      6544      6546      6547
      6541      6544      6546      6548      6542      6541      6544      6545
      6542      6541      6544      6546      6543      6541      6544      6545
      6543      6541      6544      6546      6544      6546      6548      6549
      6544      6546      6548      6550      6544      6546      6548      6551
      6545      6544      6546      6547      6545      6544      6546      6548
      6546      6548      6551      6552      6546      6548      6551      6553
      6546      6548      6551      6554      6547      6546      6548      6549
      6547      6546      6548      6550      6547      6546      6548      6551
      6548      6551      6554      6555      6548      6551      6554      6556
      6548      6551      6554      6557      6549      6548      6551      6552
      6549      6548      6551      6553      6549      6548      6551      6554
      6550      6548      6551      6552      6550      6548      6551      6553
      6550      6548      6551      6554      6551      6554      6557      6558
      6551      6554      6557      6559      6551      6554      6557      6560
      6552      6551      6554      6555      6552      6551      6554      6556
      6552      6551      6554      6557      6553      6551      6554      6555
      6553      6551      6554      6556      6553      6551      6554      6557
      6554      6557      6560      6561      6554      6557      6560      6562
      6554      6557      6560      6563      6555      6554      6557      6558
      6555      6554      6557      6559      6555      6554      6557      6560
      6556      6554      6557      6558      6556      6554      6557      6559
      6556      6554      6557      6560      6557      6560      6563      6564
      6557      6560      6563      6565      6557      6560      6563      6566
      6558      6557      6560      6561      6558      6557      6560      6562
      6558      6557      6560      6563      6559      6557      6560      6561
      6559      6557      6560      6562      6559      6557      6560      6563
      6560      6563      6566      6567      6560      6563      6566      6568
      6560      6563      6566      6569      6561      6560      6563      6564
      6561      6560      6563      6565      6561      6560      6563      6566
      6562      6560      6563      6564      6562      6560      6563      6565
      6562      6560      6563      6566      6563      6566      6569      6570
      6563      6566      6569      6571      6563      6566      6569      6572
      6564      6563      6566      6567      6564      6563      6566      6568
      6564      6563      6566      6569      6565      6563      6566      6567
      6565      6563      6566      6568      6565      6563      6566      6569
      6567      6566      6569      6570      6567      6566      6569      6571
      6567      6566      6569      6572      6568      6566      6569      6570
      6568      6566      6569      6571      6568      6566      6569      6572
      6573      6574      6589      6590      6573      6574      6589      6591
      6573      6574      6589      6595      6574      6573      6577      6578
      6574      6573      6577      6579      6574      6573      6577      6580
      6574      6573      6581      6582      6574      6573      6581      6583
      6574      6573      6581      6584      6574      6573      6585      6586
      6574      6573      6585      6587      6574      6573      6585      6588
      6574      6589      6595      6592      6575      6574      6573      6577
      6575      6574      6573      6581      6575      6574      6573      6585
      6575      6574      6589      6590      6575      6574      6589      6591
      6575      6574      6589      6595      6576      6574      6573      6577
      6576      6574      6573      6581      6576      6574      6573      6585
      6576      6574      6589      6590      6576      6574      6589      6591
      6576      6574      6589      6595      6577      6573      6574      6589
      6577      6573      6581      6582      6577      6573      6581      6583
      6577      6573      6581      6584      6577      6573      6585      6586
      6577      6573      6585      6587      6577      6573      6585      6588
      6578      6577      6573      6581      6578      6577      6573      6585
      6579      6577      6573      6581      6579      6577      6573      6585
      6580      6577      6573      6581      6580      6577      6573      6585
      6581      6573      6574      6589      6581      6573      6585      6586
      6581      6573      6585      6587      6581      6573      6585      6588
      6582      6581      6573      6585      6583      6581      6573      6585
      6584      6581      6573      6585      6585      6573      6574      6589
      6589      6595      6592      6593      6589      6595      6592      6594
      6589      6595      6592      6596      6590      6589      6595      6592
      6591      6589      6595      6592      6592      6596      6597      6598
      6592      6596      6597      6599      6592      6596      6597      6600
      6593      6592      6596      6597      6594      6592      6596      6597
      6595      6592      6596      6597      6596      6597      6600      6601
      6596      6597      6600      6602      6596      6597      6600      6608
      6597      6600      6602      6603      6597      6600      6608      6609
      6597      6600      6608      6610      6597      6600      6608      6611
      6598      6597      6600      6601      6598      6597      6600      6602
      6598      6597      6600      6608      6599      6597      6600      6601
      6599      6597      6600      6602      6599      6597      6600      6608
      6600      6602      6603      6604      6600      6602      6603      6605
      6600      6608      6611      6612      6601      6600      6602      6603
      6601      6600      6608      6609      6601      6600      6608      6610
      6601      6600      6608      6611      6602      6600      6608      6609
      6602      6600      6608      6610      6602      6600      6608      6611
      6602      6603      6605      6606      6602      6603      6605      6607
      6602      6603      6605      6617      6603      6602      6600      6608
      6603      6605      6617      6618      6603      6605      6617      6619
      6603      6605      6617      6620      6604      6603      6605      6606
      6604      6603      6605      6607      6604      6603      6605      6617
      6605      6617      6620      6621      6605      6617      6620      6622
      6605      6617      6620      6623      6606      6605      6617      6618
      6606      6605      6617      6619      6606      6605      6617      6620
      6607      6605      6617      6618      6607      6605      6617      6619
      6607      6605      6617      6620      6608      6611      6612      6613
      6608      6611      6612      6614      6609      6608      6611      6612
      6610      6608      6611      6612      6611      6612      6614      6615
      6611      6612      6614      6616      6611      6612      6614      6664
      6612      6614      6664      6665      6612      6614      6664      6666
      6612      6614      6664      6667      6613      6612      6614      6615
      6613      6612      6614      6616      6613      6612      6614      6664
      6614      6664      6667      6668      6614      6664      6667      6669
      6614      6664      6667      6670      6615      6614      6664      6665
      6615      6614      6664      6666      6615      6614      6664      6667
      6616      6614      6664      6665      6616      6614      6664      6666
      6616      6614      6664      6667      6617      6620      6623      6624
      6617      6620      6623      6625      6617      6620      6623      6626
      6618      6617      6620      6621      6618      6617      6620      6622
      6618      6617      6620      6623      6619      6617      6620      6621
      6619      6617      6620      6622      6619      6617      6620      6623
      6620      6623      6626      6627      6620      6623      6626      6628
      6620      6623      6626      6629      6621      6620      6623      6624
      6621      6620      6623      6625      6621      6620      6623      6626
      6622      6620      6623      6624      6622      6620      6623      6625
      6622      6620      6623      6626      6623      6626      6629      6630
      6623      6626      6629      6631      6623      6626      6629      6632
      6624      6623      6626      6627      6624      6623      6626      6628
      6624      6623      6626      6629      6625      6623      6626      6627
      6625      6623      6626      6628      6625      6623      6626      6629
      6626      6629      6632      6633      6626      6629      6632      6634
      6626      6629      6632      6635      6627      6626      6629      6630
      6627      6626      6629      6631      6627      6626      6629      6632
      6628      6626      6629      6630      6628      6626      6629      6631
      6628      6626      6629      6632      6629      6632      6635      6636
      6629      6632      6635      6637      6630      6629      6632      6633
      6630      6629      6632      6634      6630      6629      6632      6635
      6631      6629      6632      6633      6631      6629      6632      6634
      6631      6629      6632      6635      6632      6635      6637      6638
      6632      6635      6637      6639      6633      6632      6635      6636
      6633      6632      6635      6637      6634      6632      6635      6636
      6634      6632      6635      6637      6635      6637      6639      6640
      6635      6637      6639      6641      6635      6637      6639      6642
      6636      6635      6637      6638      6636      6635      6637      6639
      6637      6639      6642      6643      6637      6639      6642      6644
      6637      6639      6642      6645      6638      6637      6639      6640
      6638      6637      6639      6641      6638      6637      6639      6642
      6639      6642      6645      6646      6639      6642      6645      6647
      6639      6642      6645      6648      6640      6639      6642      6643
      6640      6639      6642      6644      6640      6639      6642      6645
      6641      6639      6642      6643      6641      6639      6642      6644
      6641      6639      6642      6645      6642      6645      6648      6649
      6642      6645      6648      6650      6642      6645      6648      6651
      6643      6642      6645      6646      6643      6642      6645      6647
      6643      6642      6645      6648      6644      6642      6645      6646
      6644      6642      6645      6647      6644      6642      6645      6648
      6645      6648      6651      6652      6645      6648      6651      6653
      6645      6648      6651      6654      6646      6645      6648      6649
      6646      6645      6648      6650      6646      6645      6648      6651
      6647      6645      6648      6649      6647      6645      6648      6650
      6647      6645      6648      6651      6648      6651      6654      6655
      6648      6651      6654      6656      6648      6651      6654      6657
      6649      6648      6651      6652      6649      6648      6651      6653
      6649      6648      6651      6654      6650      6648      6651      6652
      6650      6648      6651      6653      6650      6648      6651      6654
      6651      6654      6657      6658      6651      6654      6657      6659
      6651      6654      6657      6660      6652      6651      6654      6655
      6652      6651      6654      6656      6652      6651      6654      6657
      6653      6651      6654      6655      6653      6651      6654      6656
      6653      6651      6654      6657      6654      6657      6660      6661
      6654      6657      6660      6662      6654      6657      6660      6663
      6655      6654      6657      6658      6655      6654      6657      6659
      6655      6654      6657      6660      6656      6654      6657      6658
      6656      6654      6657      6659      6656      6654      6657      6660
      6658      6657      6660      6661      6658      6657      6660      6662
      6658      6657      6660      6663      6659      6657      6660      6661
      6659      6657      6660      6662      6659      6657      6660      6663
      6664      6667      6670      6671      6664      6667      6670      6672
      6664      6667      6670      6673      6665      6664      6667      6668
      6665      6664      6667      6669      6665      6664      6667      6670
      6666      6664      6667      6668      6666      6664      6667      6669
      6666      6664      6667      6670      6667      6670      6673      6674
      6667      6670      6673      6675      6667      6670      6673      6676
      6668      6667      6670      6671      6668      6667      6670      6672
      6668      6667      6670      6673      6669      6667      6670      6671
      6669      6667      6670      6672      6669      6667      6670      6673
      6670      6673      6676      6677      6670      6673      6676      6678
      6670      6673      6676      6679      6671      6670      6673      6674
      6671      6670      6673      6675      6671      6670      6673      6676
      6672      6670      6673      6674      6672      6670      6673      6675
      6672      6670      6673      6676      6673      6676      6679      6680
      6673      6676      6679      6681      6673      6676      6679      6682
      6674      6673      6676      6677      6674      6673      6676      6678
      6674      6673      6676      6679      6675      6673      6676      6677
      6675      6673      6676      6678      6675      6673      6676      6679
      6676      6679      6682      6683      6676      6679      6682      6684
      6677      6676      6679      6680      6677      6676      6679      6681
      6677      6676      6679      6682      6678      6676      6679      6680
      6678      6676      6679      6681      6678      6676      6679      6682
      6679      6682      6684      6685      6679      6682      6684      6686
      6680      6679      6682      6683      6680      6679      6682      6684
      6681      6679      6682      6683      6681      6679      6682      6684
      6682      6684      6686      6687      6682      6684      6686      6688
      6682      6684      6686      6689      6683      6682      6684      6685
      6683      6682      6684      6686      6684      6686      6689      6690
      6684      6686      6689      6691      6684      6686      6689      6692
      6685      6684      6686      6687      6685      6684      6686      6688
      6685      6684      6686      6689      6686      6689      6692      6693
      6686      6689      6692      6694      6686      6689      6692      6695
      6687      6686      6689      6690      6687      6686      6689      6691
      6687      6686      6689      6692      6688      6686      6689      6690
      6688      6686      6689      6691      6688      6686      6689      6692
      6689      6692      6695      6696      6689      6692      6695      6697
      6689      6692      6695      6698      6690      6689      6692      6693
      6690      6689      6692      6694      6690      6689      6692      6695
      6691      6689      6692      6693      6691      6689      6692      6694
      6691      6689      6692      6695      6692      6695      6698      6699
      6692      6695      6698      6700      6692      6695      6698      6701
      6693      6692      6695      6696      6693      6692      6695      6697
      6693      6692      6695      6698      6694      6692      6695      6696
      6694      6692      6695      6697      6694      6692      6695      6698
      6695      6698      6701      6702      6695      6698      6701      6703
      6695      6698      6701      6704      6696      6695      6698      6699
      6696      6695      6698      6700      6696      6695      6698      6701
      6697      6695      6698      6699      6697      6695      6698      6700
      6697      6695      6698      6701      6698      6701      6704      6705
      6698      6701      6704      6706      6698      6701      6704      6707
      6699      6698      6701      6702      6699      6698      6701      6703
      6699      6698      6701      6704      6700      6698      6701      6702
      6700      6698      6701      6703      6700      6698      6701      6704
      6701      6704      6707      6708      6701      6704      6707      6709
      6701      6704      6707      6710      6702      6701      6704      6705
      6702      6701      6704      6706      6702      6701      6704      6707
      6703      6701      6704      6705      6703      6701      6704      6706
      6703      6701      6704      6707      6705      6704      6707      6708
      6705      6704      6707      6709      6705      6704      6707      6710
      6706      6704      6707      6708      6706      6704      6707      6709
      6706      6704      6707      6710      6711      6712      6727      6728
      6711      6712      6727      6729      6711      6712      6727      6733
      6712      6711      6715      6716      6712      6711      6715      6717
      6712      6711      6715      6718      6712      6711      6719      6720
      6712      6711      6719      6721      6712      6711      6719      6722
      6712      6711      6723      6724      6712      6711      6723      6725
      6712      6711      6723      6726      6712      6727      6733      6730
      6713      6712      6711      6715      6713      6712      6711      6719
      6713      6712      6711      6723      6713      6712      6727      6728
      6713      6712      6727      6729      6713      6712      6727      6733
      6714      6712      6711      6715      6714      6712      6711      6719
      6714      6712      6711      6723      6714      6712      6727      6728
      6714      6712      6727      6729      6714      6712      6727      6733
      6715      6711      6712      6727      6715      6711      6719      6720
      6715      6711      6719      6721      6715      6711      6719      6722
      6715      6711      6723      6724      6715      6711      6723      6725
      6715      6711      6723      6726      6716      6715      6711      6719
      6716      6715      6711      6723      6717      6715      6711      6719
      6717      6715      6711      6723      6718      6715      6711      6719
      6718      6715      6711      6723      6719      6711      6712      6727
      6719      6711      6723      6724      6719      6711      6723      6725
      6719      6711      6723      6726      6720      6719      6711      6723
      6721      6719      6711      6723      6722      6719      6711      6723
      6723      6711      6712      6727      6727      6733      6730      6731
      6727      6733      6730      6732      6727      6733      6730      6734
      6728      6727      6733      6730      6729      6727      6733      6730
      6730      6734      6735      6736      6730      6734      6735      6737
      6730      6734      6735      6738      6731      6730      6734      6735
      6732      6730      6734      6735      6733      6730      6734      6735
      6734      6735      6738      6739      6734      6735      6738      6740
      6734      6735      6738      6746      6735      6738      6740      6741
      6735      6738      6746      6747      6735      6738      6746      6748
      6735      6738      6746      6749      6736      6735      6738      6739
      6736      6735      6738      6740      6736      6735      6738      6746
      6737      6735      6738      6739      6737      6735      6738      6740
      6737      6735      6738      6746      6738      6740      6741      6742
      6738      6740      6741      6743      6738      6746      6749      6750
      6739      6738      6740      6741      6739      6738      6746      6747
      6739      6738      6746      6748      6739      6738      6746      6749
      6740      6738      6746      6747      6740      6738      6746      6748
      6740      6738      6746      6749      6740      6741      6743      6744
      6740      6741      6743      6745      6740      6741      6743      6755
      6741      6740      6738      6746      6741      6743      6755      6756
      6741      6743      6755      6757      6741      6743      6755      6758
      6742      6741      6743      6744      6742      6741      6743      6745
      6742      6741      6743      6755      6743      6755      6758      6759
      6743      6755      6758      6760      6743      6755      6758      6761
      6744      6743      6755      6756      6744      6743      6755      6757
      6744      6743      6755      6758      6745      6743      6755      6756
      6745      6743      6755      6757      6745      6743      6755      6758
      6746      6749      6750      6751      6746      6749      6750      6752
      6747      6746      6749      6750      6748      6746      6749      6750
      6749      6750      6752      6753      6749      6750      6752      6754
      6749      6750      6752      6802      6750      6752      6802      6803
      6750      6752      6802      6804      6750      6752      6802      6805
      6751      6750      6752      6753      6751      6750      6752      6754
      6751      6750      6752      6802      6752      6802      6805      6806
      6752      6802      6805      6807      6752      6802      6805      6808
      6753      6752      6802      6803      6753      6752      6802      6804
      6753      6752      6802      6805      6754      6752      6802      6803
      6754      6752      6802      6804      6754      6752      6802      6805
      6755      6758      6761      6762      6755      6758      6761      6763
      6755      6758      6761      6764      6756      6755      6758      6759
      6756      6755      6758      6760      6756      6755      6758      6761
      6757      6755      6758      6759      6757      6755      6758      6760
      6757      6755      6758      6761      6758      6761      6764      6765
      6758      6761      6764      6766      6758      6761      6764      6767
      6759      6758      6761      6762      6759      6758      6761      6763
      6759      6758      6761      6764      6760      6758      6761      6762
      6760      6758      6761      6763      6760      6758      6761      6764
      6761      6764      6767      6768      6761      6764      6767      6769
      6761      6764      6767      6770      6762      6761      6764      6765
      6762      6761      6764      6766      6762      6761      6764      6767
      6763      6761      6764      6765      6763      6761      6764      6766
      6763      6761      6764      6767      6764      6767      6770      6771
      6764      6767      6770      6772      6764      6767      6770      6773
      6765      6764      6767      6768      6765      6764      6767      6769
      6765      6764      6767      6770      6766      6764      6767      6768
      6766      6764      6767      6769      6766      6764      6767      6770
      6767      6770      6773      6774      6767      6770      6773      6775
      6768      6767      6770      6771      6768      6767      6770      6772
      6768      6767      6770      6773      6769      6767      6770      6771
      6769      6767      6770      6772      6769      6767      6770      6773
      6770      6773      6775      6776      6770      6773      6775      6777
      6771      6770      6773      6774      6771      6770      6773      6775
      6772      6770      6773      6774      6772      6770      6773      6775
      6773      6775      6777      6778      6773      6775      6777      6779
      6773      6775      6777      6780      6774      6773      6775      6776
      6774      6773      6775      6777      6775      6777      6780      6781
      6775      6777      6780      6782      6775      6777      6780      6783
      6776      6775      6777      6778      6776      6775      6777      6779
      6776      6775      6777      6780      6777      6780      6783      6784
      6777      6780      6783      6785      6777      6780      6783      6786
      6778      6777      6780      6781      6778      6777      6780      6782
      6778      6777      6780      6783      6779      6777      6780      6781
      6779      6777      6780      6782      6779      6777      6780      6783
      6780      6783      6786      6787      6780      6783      6786      6788
      6780      6783      6786      6789      6781      6780      6783      6784
      6781      6780      6783      6785      6781      6780      6783      6786
      6782      6780      6783      6784      6782      6780      6783      6785
      6782      6780      6783      6786      6783      6786      6789      6790
      6783      6786      6789      6791      6783      6786      6789      6792
      6784      6783      6786      6787      6784      6783      6786      6788
      6784      6783      6786      6789      6785      6783      6786      6787
      6785      6783      6786      6788      6785      6783      6786      6789
      6786      6789      6792      6793      6786      6789      6792      6794
      6786      6789      6792      6795      6787      6786      6789      6790
      6787      6786      6789      6791      6787      6786      6789      6792
      6788      6786      6789      6790      6788      6786      6789      6791
      6788      6786      6789      6792      6789      6792      6795      6796
      6789      6792      6795      6797      6789      6792      6795      6798
      6790      6789      6792      6793      6790      6789      6792      6794
      6790      6789      6792      6795      6791      6789      6792      6793
      6791      6789      6792      6794      6791      6789      6792      6795
      6792      6795      6798      6799      6792      6795      6798      6800
      6792      6795      6798      6801      6793      6792      6795      6796
      6793      6792      6795      6797      6793      6792      6795      6798
      6794      6792      6795      6796      6794      6792      6795      6797
      6794      6792      6795      6798      6796      6795      6798      6799
      6796      6795      6798      6800      6796      6795      6798      6801
      6797      6795      6798      6799      6797      6795      6798      6800
      6797      6795      6798      6801      6802      6805      6808      6809
      6802      6805      6808      6810      6802      6805      6808      6811
      6803      6802      6805      6806      6803      6802      6805      6807
      6803      6802      6805      6808      6804      6802      6805      6806
      6804      6802      6805      6807      6804      6802      6805      6808
      6805      6808      6811      6812      6805      6808      6811      6813
      6805      6808      6811      6814      6806      6805      6808      6809
      6806      6805      6808      6810      6806      6805      6808      6811
      6807      6805      6808      6809      6807      6805      6808      6810
      6807      6805      6808      6811      6808      6811      6814      6815
      6808      6811      6814      6816      6808      6811      6814      6817
      6809      6808      6811      6812      6809      6808      6811      6813
      6809      6808      6811      6814      6810      6808      6811      6812
      6810      6808      6811      6813      6810      6808      6811      6814
      6811      6814      6817      6818      6811      6814      6817      6819
      6811      6814      6817      6820      6812      6811      6814      6815
      6812      6811      6814      6816      6812      6811      6814      6817
      6813      6811      6814      6815      6813      6811      6814      6816
      6813      6811      6814      6817      6814      6817      6820      6821
      6814      6817      6820      6822      6815      6814      6817      6818
      6815      6814      6817      6819      6815      6814      6817      6820
      6816      6814      6817      6818      6816      6814      6817      6819
      6816      6814      6817      6820      6817      6820      6822      6823
      6817      6820      6822      6824      6818      6817      6820      6821
      6818      6817      6820      6822      6819      6817      6820      6821
      6819      6817      6820      6822      6820      6822      6824      6825
      6820      6822      6824      6826      6820      6822      6824      6827
      6821      6820      6822      6823      6821      6820      6822      6824
      6822      6824      6827      6828      6822      6824      6827      6829
      6822      6824      6827      6830      6823      6822      6824      6825
      6823      6822      6824      6826      6823      6822      6824      6827
      6824      6827      6830      6831      6824      6827      6830      6832
      6824      6827      6830      6833      6825      6824      6827      6828
      6825      6824      6827      6829      6825      6824      6827      6830
      6826      6824      6827      6828      6826      6824      6827      6829
      6826      6824      6827      6830      6827      6830      6833      6834
      6827      6830      6833      6835      6827      6830      6833      6836
      6828      6827      6830      6831      6828      6827      6830      6832
      6828      6827      6830      6833      6829      6827      6830      6831
      6829      6827      6830      6832      6829      6827      6830      6833
      6830      6833      6836      6837      6830      6833      6836      6838
      6830      6833      6836      6839      6831      6830      6833      6834
      6831      6830      6833      6835      6831      6830      6833      6836
      6832      6830      6833      6834      6832      6830      6833      6835
      6832      6830      6833      6836      6833      6836      6839      6840
      6833      6836      6839      6841      6833      6836      6839      6842
      6834      6833      6836      6837      6834      6833      6836      6838
      6834      6833      6836      6839      6835      6833      6836      6837
      6835      6833      6836      6838      6835      6833      6836      6839
      6836      6839      6842      6843      6836      6839      6842      6844
      6836      6839      6842      6845      6837      6836      6839      6840
      6837      6836      6839      6841      6837      6836      6839      6842
      6838      6836      6839      6840      6838      6836      6839      6841
      6838      6836      6839      6842      6839      6842      6845      6846
      6839      6842      6845      6847      6839      6842      6845      6848
      6840      6839      6842      6843      6840      6839      6842      6844
      6840      6839      6842      6845      6841      6839      6842      6843
      6841      6839      6842      6844      6841      6839      6842      6845
      6843      6842      6845      6846      6843      6842      6845      6847
      6843      6842      6845      6848      6844      6842      6845      6846
      6844      6842      6845      6847      6844      6842      6845      6848
      6849      6850      6865      6866      6849      6850      6865      6867
      6849      6850      6865      6871      6850      6849      6853      6854
      6850      6849      6853      6855      6850      6849      6853      6856
      6850      6849      6857      6858      6850      6849      6857      6859
      6850      6849      6857      6860      6850      6849      6861      6862
      6850      6849      6861      6863      6850      6849      6861      6864
      6850      6865      6871      6868      6851      6850      6849      6853
      6851      6850      6849      6857      6851      6850      6849      6861
      6851      6850      6865      6866      6851      6850      6865      6867
      6851      6850      6865      6871      6852      6850      6849      6853
      6852      6850      6849      6857      6852      6850      6849      6861
      6852      6850      6865      6866      6852      6850      6865      6867
      6852      6850      6865      6871      6853      6849      6850      6865
      6853      6849      6857      6858      6853      6849      6857      6859
      6853      6849      6857      6860      6853      6849      6861      6862
      6853      6849      6861      6863      6853      6849      6861      6864
      6854      6853      6849      6857      6854      6853      6849      6861
      6855      6853      6849      6857      6855      6853      6849      6861
      6856      6853      6849      6857      6856      6853      6849      6861
      6857      6849      6850      6865      6857      6849      6861      6862
      6857      6849      6861      6863      6857      6849      6861      6864
      6858      6857      6849      6861      6859      6857      6849      6861
      6860      6857      6849      6861      6861      6849      6850      6865
      6865      6871      6868      6869      6865      6871      6868      6870
      6865      6871      6868      6872      6866      6865      6871      6868
      6867      6865      6871      6868      6868      6872      6873      6874
      6868      6872      6873      6875      6868      6872      6873      6876
      6869      6868      6872      6873      6870      6868      6872      6873
      6871      6868      6872      6873      6872      6873      6876      6877
      6872      6873      6876      6878      6872      6873      6876      6884
      6873      6876      6878      6879      6873      6876      6884      6885
      6873      6876      6884      6886      6873      6876      6884      6887
      6874      6873      6876      6877      6874      6873      6876      6878
      6874      6873      6876      6884      6875      6873      6876      6877
      6875      6873      6876      6878      6875      6873      6876      6884
      6876      6878      6879      6880      6876      6878      6879      6881
      6876      6884      6887      6888      6877      6876      6878      6879
      6877      6876      6884      6885      6877      6876      6884      6886
      6877      6876      6884      6887      6878      6876      6884      6885
      6878      6876      6884      6886      6878      6876      6884      6887
      6878      6879      6881      6882      6878      6879      6881      6883
      6878      6879      6881      6893      6879      6878      6876      6884
      6879      6881      6893      6894      6879      6881      6893      6895
      6879      6881      6893      6896      6880      6879      6881      6882
      6880      6879      6881      6883      6880      6879      6881      6893
      6881      6893      6896      6897      6881      6893      6896      6898
      6881      6893      6896      6899      6882      6881      6893      6894
      6882      6881      6893      6895      6882      6881      6893      6896
      6883      6881      6893      6894      6883      6881      6893      6895
      6883      6881      6893      6896      6884      6887      6888      6889
      6884      6887      6888      6890      6885      6884      6887      6888
      6886      6884      6887      6888      6887      6888      6890      6891
      6887      6888      6890      6892      6887      6888      6890      6940
      6888      6890      6940      6941      6888      6890      6940      6942
      6888      6890      6940      6943      6889      6888      6890      6891
      6889      6888      6890      6892      6889      6888      6890      6940
      6890      6940      6943      6944      6890      6940      6943      6945
      6890      6940      6943      6946      6891      6890      6940      6941
      6891      6890      6940      6942      6891      6890      6940      6943
      6892      6890      6940      6941      6892      6890      6940      6942
      6892      6890      6940      6943      6893      6896      6899      6900
      6893      6896      6899      6901      6893      6896      6899      6902
      6894      6893      6896      6897      6894      6893      6896      6898
      6894      6893      6896      6899      6895      6893      6896      6897
      6895      6893      6896      6898      6895      6893      6896      6899
      6896      6899      6902      6903      6896      6899      6902      6904
      6896      6899      6902      6905      6897      6896      6899      6900
      6897      6896      6899      6901      6897      6896      6899      6902
      6898      6896      6899      6900      6898      6896      6899      6901
      6898      6896      6899      6902      6899      6902      6905      6906
      6899      6902      6905      6907      6899      6902      6905      6908
      6900      6899      6902      6903      6900      6899      6902      6904
      6900      6899      6902      6905      6901      6899      6902      6903
      6901      6899      6902      6904      6901      6899      6902      6905
      6902      6905      6908      6909      6902      6905      6908      6910
      6902      6905      6908      6911      6903      6902      6905      6906
      6903      6902      6905      6907      6903      6902      6905      6908
      6904      6902      6905      6906      6904      6902      6905      6907
      6904      6902      6905      6908      6905      6908      6911      6912
      6905      6908      6911      6913      6906      6905      6908      6909
      6906      6905      6908      6910      6906      6905      6908      6911
      6907      6905      6908      6909      6907      6905      6908      6910
      6907      6905      6908      6911      6908      6911      6913      6914
      6908      6911      6913      6915      6909      6908      6911      6912
      6909      6908      6911      6913      6910      6908      6911      6912
      6910      6908      6911      6913      6911      6913      6915      6916
      6911      6913      6915      6917      6911      6913      6915      6918
      6912      6911      6913      6914      6912      6911      6913      6915
      6913      6915      6918      6919      6913      6915      6918      6920
      6913      6915      6918      6921      6914      6913      6915      6916
      6914      6913      6915      6917      6914      6913      6915      6918
      6915      6918      6921      6922      6915      6918      6921      6923
      6915      6918      6921      6924      6916      6915      6918      6919
      6916      6915      6918      6920      6916      6915      6918      6921
      6917      6915      6918      6919      6917      6915      6918      6920
      6917      6915      6918      6921      6918      6921      6924      6925
      6918      6921      6924      6926      6918      6921      6924      6927
      6919      6918      6921      6922      6919      6918      6921      6923
      6919      6918      6921      6924      6920      6918      6921      6922
      6920      6918      6921      6923      6920      6918      6921      6924
      6921      6924      6927      6928      6921      6924      6927      6929
      6921      6924      6927      6930      6922      6921      6924      6925
      6922      6921      6924      6926      6922      6921      6924      6927
      6923      6921      6924      6925      6923      6921      6924      6926
      6923      6921      6924      6927      6924      6927      6930      6931
      6924      6927      6930      6932      6924      6927      6930      6933
      6925      6924      6927      6928      6925      6924      6927      6929
      6925      6924      6927      6930      6926      6924      6927      6928
      6926      6924      6927      6929      6926      6924      6927      6930
      6927      6930      6933      6934      6927      6930      6933      6935
      6927      6930      6933      6936      6928      6927      6930      6931
      6928      6927      6930      6932      6928      6927      6930      6933
      6929      6927      6930      6931      6929      6927      6930      6932
      6929      6927      6930      6933      6930      6933      6936      6937
      6930      6933      6936      6938      6930      6933      6936      6939
      6931      6930      6933      6934      6931      6930      6933      6935
      6931      6930      6933      6936      6932      6930      6933      6934
      6932      6930      6933      6935      6932      6930      6933      6936
      6934      6933      6936      6937      6934      6933      6936      6938
      6934      6933      6936      6939      6935      6933      6936      6937
      6935      6933      6936      6938      6935      6933      6936      6939
      6940      6943      6946      6947      6940      6943      6946      6948
      6940      6943      6946      6949      6941      6940      6943      6944
      6941      6940      6943      6945      6941      6940      6943      6946
      6942      6940      6943      6944      6942      6940      6943      6945
      6942      6940      6943      6946      6943      6946      6949      6950
      6943      6946      6949      6951      6943      6946      6949      6952
      6944      6943      6946      6947      6944      6943      6946      6948
      6944      6943      6946      6949      6945      6943      6946      6947
      6945      6943      6946      6948      6945      6943      6946      6949
      6946      6949      6952      6953      6946      6949      6952      6954
      6946      6949      6952      6955      6947      6946      6949      6950
      6947      6946      6949      6951      6947      6946      6949      6952
      6948      6946      6949      6950      6948      6946      6949      6951
      6948      6946      6949      6952      6949      6952      6955      6956
      6949      6952      6955      6957      6949      6952      6955      6958
      6950      6949      6952      6953      6950      6949      6952      6954
      6950      6949      6952      6955      6951      6949      6952      6953
      6951      6949      6952      6954      6951      6949      6952      6955
      6952      6955      6958      6959      6952      6955      6958      6960
      6953      6952      6955      6956      6953      6952      6955      6957
      6953      6952      6955      6958      6954      6952      6955      6956
      6954      6952      6955      6957      6954      6952      6955      6958
      6955      6958      6960      6961      6955      6958      6960      6962
      6956      6955      6958      6959      6956      6955      6958      6960
      6957      6955      6958      6959      6957      6955      6958      6960
      6958      6960      6962      6963      6958      6960      6962      6964
      6958      6960      6962      6965      6959      6958      6960      6961
      6959      6958      6960      6962      6960      6962      6965      6966
      6960      6962      6965      6967      6960      6962      6965      6968
      6961      6960      6962      6963      6961      6960      6962      6964
      6961      6960      6962      6965      6962      6965      6968      6969
      6962      6965      6968      6970      6962      6965      6968      6971
      6963      6962      6965      6966      6963      6962      6965      6967
      6963      6962      6965      6968      6964      6962      6965      6966
      6964      6962      6965      6967      6964      6962      6965      6968
      6965      6968      6971      6972      6965      6968      6971      6973
      6965      6968      6971      6974      6966      6965      6968      6969
      6966      6965      6968      6970      6966      6965      6968      6971
      6967      6965      6968      6969      6967      6965      6968      6970
      6967      6965      6968      6971      6968      6971      6974      6975
      6968      6971      6974      6976      6968      6971      6974      6977
      6969      6968      6971      6972      6969      6968      6971      6973
      6969      6968      6971      6974      6970      6968      6971      6972
      6970      6968      6971      6973      6970      6968      6971      6974
      6971      6974      6977      6978      6971      6974      6977      6979
      6971      6974      6977      6980      6972      6971      6974      6975
      6972      6971      6974      6976      6972      6971      6974      6977
      6973      6971      6974      6975      6973      6971      6974      6976
      6973      6971      6974      6977      6974      6977      6980      6981
      6974      6977      6980      6982      6974      6977      6980      6983
      6975      6974      6977      6978      6975      6974      6977      6979
      6975      6974      6977      6980      6976      6974      6977      6978
      6976      6974      6977      6979      6976      6974      6977      6980
      6977      6980      6983      6984      6977      6980      6983      6985
      6977      6980      6983      6986      6978      6977      6980      6981
      6978      6977      6980      6982      6978      6977      6980      6983
      6979      6977      6980      6981      6979      6977      6980      6982
      6979      6977      6980      6983      6981      6980      6983      6984
      6981      6980      6983      6985      6981      6980      6983      6986
      6982      6980      6983      6984      6982      6980      6983      6985
      6982      6980      6983      6986      6987      6988      7003      7004
      6987      6988      7003      7005      6987      6988      7003      7009
      6988      6987      6991      6992      6988      6987      6991      6993
      6988      6987      6991      6994      6988      6987      6995      6996
      6988      6987      6995      6997      6988      6987      6995      6998
      6988      6987      6999      7000      6988      6987      6999      7001
      6988      6987      6999      7002      6988      7003      7009      7006
      6989      6988      6987      6991      6989      6988      6987      6995
      6989      6988      6987      6999      6989      6988      7003      7004
      6989      6988      7003      7005      6989      6988      7003      7009
      6990      6988      6987      6991      6990      6988      6987      6995
      6990      6988      6987      6999      6990      6988      7003      7004
      6990      6988      7003      7005      6990      6988      7003      7009
      6991      6987      6988      7003      6991      6987      6995      6996
      6991      6987      6995      6997      6991      6987      6995      6998
      6991      6987      6999      7000      6991      6987      6999      7001
      6991      6987      6999      7002      6992      6991      6987      6995
      6992      6991      6987      6999      6993      6991      6987      6995
      6993      6991      6987      6999      6994      6991      6987      6995
      6994      6991      6987      6999      6995      6987      6988      7003
      6995      6987      6999      7000      6995      6987      6999      7001
      6995      6987      6999      7002      6996      6995      6987      6999
      6997      6995      6987      6999      6998      6995      6987      6999
      6999      6987      6988      7003      7003      7009      7006      7007
      7003      7009      7006      7008      7003      7009      7006      7010
      7004      7003      7009      7006      7005      7003      7009      7006
      7006      7010      7011      7012      7006      7010      7011      7013
      7006      7010      7011      7014      7007      7006      7010      7011
      7008      7006      7010      7011      7009      7006      7010      7011
      7010      7011      7014      7015      7010      7011      7014      7016
      7010      7011      7014      7022      7011      7014      7016      7017
      7011      7014      7022      7023      7011      7014      7022      7024
      7011      7014      7022      7025      7012      7011      7014      7015
      7012      7011      7014      7016      7012      7011      7014      7022
      7013      7011      7014      7015      7013      7011      7014      7016
      7013      7011      7014      7022      7014      7016      7017      7018
      7014      7016      7017      7019      7014      7022      7025      7026
      7015      7014      7016      7017      7015      7014      7022      7023
      7015      7014      7022      7024      7015      7014      7022      7025
      7016      7014      7022      7023      7016      7014      7022      7024
      7016      7014      7022      7025      7016      7017      7019      7020
      7016      7017      7019      7021      7016      7017      7019      7031
      7017      7016      7014      7022      7017      7019      7031      7032
      7017      7019      7031      7033      7017      7019      7031      7034
      7018      7017      7019      7020      7018      7017      7019      7021
      7018      7017      7019      7031      7019      7031      7034      7035
      7019      7031      7034      7036      7019      7031      7034      7037
      7020      7019      7031      7032      7020      7019      7031      7033
      7020      7019      7031      7034      7021      7019      7031      7032
      7021      7019      7031      7033      7021      7019      7031      7034
      7022      7025      7026      7027      7022      7025      7026      7028
      7023      7022      7025      7026      7024      7022      7025      7026
      7025      7026      7028      7029      7025      7026      7028      7030
      7025      7026      7028      7078      7026      7028      7078      7079
      7026      7028      7078      7080      7026      7028      7078      7081
      7027      7026      7028      7029      7027      7026      7028      7030
      7027      7026      7028      7078      7028      7078      7081      7082
      7028      7078      7081      7083      7028      7078      7081      7084
      7029      7028      7078      7079      7029      7028      7078      7080
      7029      7028      7078      7081      7030      7028      7078      7079
      7030      7028      7078      7080      7030      7028      7078      7081
      7031      7034      7037      7038      7031      7034      7037      7039
      7031      7034      7037      7040      7032      7031      7034      7035
      7032      7031      7034      7036      7032      7031      7034      7037
      7033      7031      7034      7035      7033      7031      7034      7036
      7033      7031      7034      7037      7034      7037      7040      7041
      7034      7037      7040      7042      7034      7037      7040      7043
      7035      7034      7037      7038      7035      7034      7037      7039
      7035      7034      7037      7040      7036      7034      7037      7038
      7036      7034      7037      7039      7036      7034      7037      7040
      7037      7040      7043      7044      7037      7040      7043      7045
      7037      7040      7043      7046      7038      7037      7040      7041
      7038      7037      7040      7042      7038      7037      7040      7043
      7039      7037      7040      7041      7039      7037      7040      7042
      7039      7037      7040      7043      7040      7043      7046      7047
      7040      7043      7046      7048      7040      7043      7046      7049
      7041      7040      7043      7044      7041      7040      7043      7045
      7041      7040      7043      7046      7042      7040      7043      7044
      7042      7040      7043      7045      7042      7040      7043      7046
      7043      7046      7049      7050      7043      7046      7049      7051
      7044      7043      7046      7047      7044      7043      7046      7048
      7044      7043      7046      7049      7045      7043      7046      7047
      7045      7043      7046      7048      7045      7043      7046      7049
      7046      7049      7051      7052      7046      7049      7051      7053
      7047      7046      7049      7050      7047      7046      7049      7051
      7048      7046      7049      7050      7048      7046      7049      7051
      7049      7051      7053      7054      7049      7051      7053      7055
      7049      7051      7053      7056      7050      7049      7051      7052
      7050      7049      7051      7053      7051      7053      7056      7057
      7051      7053      7056      7058      7051      7053      7056      7059
      7052      7051      7053      7054      7052      7051      7053      7055
      7052      7051      7053      7056      7053      7056      7059      7060
      7053      7056      7059      7061      7053      7056      7059      7062
      7054      7053      7056      7057      7054      7053      7056      7058
      7054      7053      7056      7059      7055      7053      7056      7057
      7055      7053      7056      7058      7055      7053      7056      7059
      7056      7059      7062      7063      7056      7059      7062      7064
      7056      7059      7062      7065      7057      7056      7059      7060
      7057      7056      7059      7061      7057      7056      7059      7062
      7058      7056      7059      7060      7058      7056      7059      7061
      7058      7056      7059      7062      7059      7062      7065      7066
      7059      7062      7065      7067      7059      7062      7065      7068
      7060      7059      7062      7063      7060      7059      7062      7064
      7060      7059      7062      7065      7061      7059      7062      7063
      7061      7059      7062      7064      7061      7059      7062      7065
      7062      7065      7068      7069      7062      7065      7068      7070
      7062      7065      7068      7071      7063      7062      7065      7066
      7063      7062      7065      7067      7063      7062      7065      7068
      7064      7062      7065      7066      7064      7062      7065      7067
      7064      7062      7065      7068      7065      7068      7071      7072
      7065      7068      7071      7073      7065      7068      7071      7074
      7066      7065      7068      7069      7066      7065      7068      7070
      7066      7065      7068      7071      7067      7065      7068      7069
      7067      7065      7068      7070      7067      7065      7068      7071
      7068      7071      7074      7075      7068      7071      7074      7076
      7068      7071      7074      7077      7069      7068      7071      7072
      7069      7068      7071      7073      7069      7068      7071      7074
      7070      7068      7071      7072      7070      7068      7071      7073
      7070      7068      7071      7074      7072      7071      7074      7075
      7072      7071      7074      7076      7072      7071      7074      7077
      7073      7071      7074      7075      7073      7071      7074      7076
      7073      7071      7074      7077      7078      7081      7084      7085
      7078      7081      7084      7086      7078      7081      7084      7087
      7079      7078      7081      7082      7079      7078      7081      7083
      7079      7078      7081      7084      7080      7078      7081      7082
      7080      7078      7081      7083      7080      7078      7081      7084
      7081      7084      7087      7088      7081      7084      7087      7089
      7081      7084      7087      7090      7082      7081      7084      7085
      7082      7081      7084      7086      7082      7081      7084      7087
      7083      7081      7084      7085      7083      7081      7084      7086
      7083      7081      7084      7087      7084      7087      7090      7091
      7084      7087      7090      7092      7084      7087      7090      7093
      7085      7084      7087      7088      7085      7084      7087      7089
      7085      7084      7087      7090      7086      7084      7087      7088
      7086      7084      7087      7089      7086      7084      7087      7090
      7087      7090      7093      7094      7087      7090      7093      7095
      7087      7090      7093      7096      7088      7087      7090      7091
      7088      7087      7090      7092      7088      7087      7090      7093
      7089      7087      7090      7091      7089      7087      7090      7092
      7089      7087      7090      7093      7090      7093      7096      7097
      7090      7093      7096      7098      7091      7090      7093      7094
      7091      7090      7093      7095      7091      7090      7093      7096
      7092      7090      7093      7094      7092      7090      7093      7095
      7092      7090      7093      7096      7093      7096      7098      7099
      7093      7096      7098      7100      7094      7093      7096      7097
      7094      7093      7096      7098      7095      7093      7096      7097
      7095      7093      7096      7098      7096      7098      7100      7101
      7096      7098      7100      7102      7096      7098      7100      7103
      7097      7096      7098      7099      7097      7096      7098      7100
      7098      7100      7103      7104      7098      7100      7103      7105
      7098      7100      7103      7106      7099      7098      7100      7101
      7099      7098      7100      7102      7099      7098      7100      7103
      7100      7103      7106      7107      7100      7103      7106      7108
      7100      7103      7106      7109      7101      7100      7103      7104
      7101      7100      7103      7105      7101      7100      7103      7106
      7102      7100      7103      7104      7102      7100      7103      7105
      7102      7100      7103      7106      7103      7106      7109      7110
      7103      7106      7109      7111      7103      7106      7109      7112
      7104      7103      7106      7107      7104      7103      7106      7108
      7104      7103      7106      7109      7105      7103      7106      7107
      7105      7103      7106      7108      7105      7103      7106      7109
      7106      7109      7112      7113      7106      7109      7112      7114
      7106      7109      7112      7115      7107      7106      7109      7110
      7107      7106      7109      7111      7107      7106      7109      7112
      7108      7106      7109      7110      7108      7106      7109      7111
      7108      7106      7109      7112      7109      7112      7115      7116
      7109      7112      7115      7117      7109      7112      7115      7118
      7110      7109      7112      7113      7110      7109      7112      7114
      7110      7109      7112      7115      7111      7109      7112      7113
      7111      7109      7112      7114      7111      7109      7112      7115
      7112      7115      7118      7119      7112      7115      7118      7120
      7112      7115      7118      7121      7113      7112      7115      7116
      7113      7112      7115      7117      7113      7112      7115      7118
      7114      7112      7115      7116      7114      7112      7115      7117
      7114      7112      7115      7118      7115      7118      7121      7122
      7115      7118      7121      7123      7115      7118      7121      7124
      7116      7115      7118      7119      7116      7115      7118      7120
      7116      7115      7118      7121      7117      7115      7118      7119
      7117      7115      7118      7120      7117      7115      7118      7121
      7119      7118      7121      7122      7119      7118      7121      7123
      7119      7118      7121      7124      7120      7118      7121      7122
      7120      7118      7121      7123      7120      7118      7121      7124
      7125      7126      7141      7142      7125      7126      7141      7143
      7125      7126      7141      7147      7126      7125      7129      7130
      7126      7125      7129      7131      7126      7125      7129      7132
      7126      7125      7133      7134      7126      7125      7133      7135
      7126      7125      7133      7136      7126      7125      7137      7138
      7126      7125      7137      7139      7126      7125      7137      7140
      7126      7141      7147      7144      7127      7126      7125      7129
      7127      7126      7125      7133      7127      7126      7125      7137
      7127      7126      7141      7142      7127      7126      7141      7143
      7127      7126      7141      7147      7128      7126      7125      7129
      7128      7126      7125      7133      7128      7126      7125      7137
      7128      7126      7141      7142      7128      7126      7141      7143
      7128      7126      7141      7147      7129      7125      7126      7141
      7129      7125      7133      7134      7129      7125      7133      7135
      7129      7125      7133      7136      7129      7125      7137      7138
      7129      7125      7137      7139      7129      7125      7137      7140
      7130      7129      7125      7133      7130      7129      7125      7137
      7131      7129      7125      7133      7131      7129      7125      7137
      7132      7129      7125      7133      7132      7129      7125      7137
      7133      7125      7126      7141      7133      7125      7137      7138
      7133      7125      7137      7139      7133      7125      7137      7140
      7134      7133      7125      7137      7135      7133      7125      7137
      7136      7133      7125      7137      7137      7125      7126      7141
      7141      7147      7144      7145      7141      7147      7144      7146
      7141      7147      7144      7148      7142      7141      7147      7144
      7143      7141      7147      7144      7144      7148      7149      7150
      7144      7148      7149      7151      7144      7148      7149      7152
      7145      7144      7148      7149      7146      7144      7148      7149
      7147      7144      7148      7149      7148      7149      7152      7153
      7148      7149      7152      7154      7148      7149      7152      7160
      7149      7152      7154      7155      7149      7152      7160      7161
      7149      7152      7160      7162      7149      7152      7160      7163
      7150      7149      7152      7153      7150      7149      7152      7154
      7150      7149      7152      7160      7151      7149      7152      7153
      7151      7149      7152      7154      7151      7149      7152      7160
      7152      7154      7155      7156      7152      7154      7155      7157
      7152      7160      7163      7164      7153      7152      7154      7155
      7153      7152      7160      7161      7153      7152      7160      7162
      7153      7152      7160      7163      7154      7152      7160      7161
      7154      7152      7160      7162      7154      7152      7160      7163
      7154      7155      7157      7158      7154      7155      7157      7159
      7154      7155      7157      7169      7155      7154      7152      7160
      7155      7157      7169      7170      7155      7157      7169      7171
      7155      7157      7169      7172      7156      7155      7157      7158
      7156      7155      7157      7159      7156      7155      7157      7169
      7157      7169      7172      7173      7157      7169      7172      7174
      7157      7169      7172      7175      7158      7157      7169      7170
      7158      7157      7169      7171      7158      7157      7169      7172
      7159      7157      7169      7170      7159      7157      7169      7171
      7159      7157      7169      7172      7160      7163      7164      7165
      7160      7163      7164      7166      7161      7160      7163      7164
      7162      7160      7163      7164      7163      7164      7166      7167
      7163      7164      7166      7168      7163      7164      7166      7216
      7164      7166      7216      7217      7164      7166      7216      7218
      7164      7166      7216      7219      7165      7164      7166      7167
      7165      7164      7166      7168      7165      7164      7166      7216
      7166      7216      7219      7220      7166      7216      7219      7221
      7166      7216      7219      7222      7167      7166      7216      7217
      7167      7166      7216      7218      7167      7166      7216      7219
      7168      7166      7216      7217      7168      7166      7216      7218
      7168      7166      7216      7219      7169      7172      7175      7176
      7169      7172      7175      7177      7169      7172      7175      7178
      7170      7169      7172      7173      7170      7169      7172      7174
      7170      7169      7172      7175      7171      7169      7172      7173
      7171      7169      7172      7174      7171      7169      7172      7175
      7172      7175      7178      7179      7172      7175      7178      7180
      7172      7175      7178      7181      7173      7172      7175      7176
      7173      7172      7175      7177      7173      7172      7175      7178
      7174      7172      7175      7176      7174      7172      7175      7177
      7174      7172      7175      7178      7175      7178      7181      7182
      7175      7178      7181      7183      7175      7178      7181      7184
      7176      7175      7178      7179      7176      7175      7178      7180
      7176      7175      7178      7181      7177      7175      7178      7179
      7177      7175      7178      7180      7177      7175      7178      7181
      7178      7181      7184      7185      7178      7181      7184      7186
      7178      7181      7184      7187      7179      7178      7181      7182
      7179      7178      7181      7183      7179      7178      7181      7184
      7180      7178      7181      7182      7180      7178      7181      7183
      7180      7178      7181      7184      7181      7184      7187      7188
      7181      7184      7187      7189      7182      7181      7184      7185
      7182      7181      7184      7186      7182      7181      7184      7187
      7183      7181      7184      7185      7183      7181      7184      7186
      7183      7181      7184      7187      7184      7187      7189      7190
      7184      7187      7189      7191      7185      7184      7187      7188
      7185      7184      7187      7189      7186      7184      7187      7188
      7186      7184      7187      7189      7187      7189      7191      7192
      7187      7189      7191      7193      7187      7189      7191      7194
      7188      7187      7189      7190      7188      7187      7189      7191
      7189      7191      7194      7195      7189      7191      7194      7196
      7189      7191      7194      7197      7190      7189      7191      7192
      7190      7189      7191      7193      7190      7189      7191      7194
      7191      7194      7197      7198      7191      7194      7197      7199
      7191      7194      7197      7200      7192      7191      7194      7195
      7192      7191      7194      7196      7192      7191      7194      7197
      7193      7191      7194      7195      7193      7191      7194      7196
      7193      7191      7194      7197      7194      7197      7200      7201
      7194      7197      7200      7202      7194      7197      7200      7203
      7195      7194      7197      7198      7195      7194      7197      7199
      7195      7194      7197      7200      7196      7194      7197      7198
      7196      7194      7197      7199      7196      7194      7197      7200
      7197      7200      7203      7204      7197      7200      7203      7205
      7197      7200      7203      7206      7198      7197      7200      7201
      7198      7197      7200      7202      7198      7197      7200      7203
      7199      7197      7200      7201      7199      7197      7200      7202
      7199      7197      7200      7203      7200      7203      7206      7207
      7200      7203      7206      7208      7200      7203      7206      7209
      7201      7200      7203      7204      7201      7200      7203      7205
      7201      7200      7203      7206      7202      7200      7203      7204
      7202      7200      7203      7205      7202      7200      7203      7206
      7203      7206      7209      7210      7203      7206      7209      7211
      7203      7206      7209      7212      7204      7203      7206      7207
      7204      7203      7206      7208      7204      7203      7206      7209
      7205      7203      7206      7207      7205      7203      7206      7208
      7205      7203      7206      7209      7206      7209      7212      7213
      7206      7209      7212      7214      7206      7209      7212      7215
      7207      7206      7209      7210      7207      7206      7209      7211
      7207      7206      7209      7212      7208      7206      7209      7210
      7208      7206      7209      7211      7208      7206      7209      7212
      7210      7209      7212      7213      7210      7209      7212      7214
      7210      7209      7212      7215      7211      7209      7212      7213
      7211      7209      7212      7214      7211      7209      7212      7215
      7216      7219      7222      7223      7216      7219      7222      7224
      7216      7219      7222      7225      7217      7216      7219      7220
      7217      7216      7219      7221      7217      7216      7219      7222
      7218      7216      7219      7220      7218      7216      7219      7221
      7218      7216      7219      7222      7219      7222      7225      7226
      7219      7222      7225      7227      7219      7222      7225      7228
      7220      7219      7222      7223      7220      7219      7222      7224
      7220      7219      7222      7225      7221      7219      7222      7223
      7221      7219      7222      7224      7221      7219      7222      7225
      7222      7225      7228      7229      7222      7225      7228      7230
      7222      7225      7228      7231      7223      7222      7225      7226
      7223      7222      7225      7227      7223      7222      7225      7228
      7224      7222      7225      7226      7224      7222      7225      7227
      7224      7222      7225      7228      7225      7228      7231      7232
      7225      7228      7231      7233      7225      7228      7231      7234
      7226      7225      7228      7229      7226      7225      7228      7230
      7226      7225      7228      7231      7227      7225      7228      7229
      7227      7225      7228      7230      7227      7225      7228      7231
      7228      7231      7234      7235      7228      7231      7234      7236
      7229      7228      7231      7232      7229      7228      7231      7233
      7229      7228      7231      7234      7230      7228      7231      7232
      7230      7228      7231      7233      7230      7228      7231      7234
      7231      7234      7236      7237      7231      7234      7236      7238
      7232      7231      7234      7235      7232      7231      7234      7236
      7233      7231      7234      7235      7233      7231      7234      7236
      7234      7236      7238      7239      7234      7236      7238      7240
      7234      7236      7238      7241      7235      7234      7236      7237
      7235      7234      7236      7238      7236      7238      7241      7242
      7236      7238      7241      7243      7236      7238      7241      7244
      7237      7236      7238      7239      7237      7236      7238      7240
      7237      7236      7238      7241      7238      7241      7244      7245
      7238      7241      7244      7246      7238      7241      7244      7247
      7239      7238      7241      7242      7239      7238      7241      7243
      7239      7238      7241      7244      7240      7238      7241      7242
      7240      7238      7241      7243      7240      7238      7241      7244
      7241      7244      7247      7248      7241      7244      7247      7249
      7241      7244      7247      7250      7242      7241      7244      7245
      7242      7241      7244      7246      7242      7241      7244      7247
      7243      7241      7244      7245      7243      7241      7244      7246
      7243      7241      7244      7247      7244      7247      7250      7251
      7244      7247      7250      7252      7244      7247      7250      7253
      7245      7244      7247      7248      7245      7244      7247      7249
      7245      7244      7247      7250      7246      7244      7247      7248
      7246      7244      7247      7249      7246      7244      7247      7250
      7247      7250      7253      7254      7247      7250      7253      7255
      7247      7250      7253      7256      7248      7247      7250      7251
      7248      7247      7250      7252      7248      7247      7250      7253
      7249      7247      7250      7251      7249      7247      7250      7252
      7249      7247      7250      7253      7250      7253      7256      7257
      7250      7253      7256      7258      7250      7253      7256      7259
      7251      7250      7253      7254      7251      7250      7253      7255
      7251      7250      7253      7256      7252      7250      7253      7254
      7252      7250      7253      7255      7252      7250      7253      7256
      7253      7256      7259      7260      7253      7256      7259      7261
      7253      7256      7259      7262      7254      7253      7256      7257
      7254      7253      7256      7258      7254      7253      7256      7259
      7255      7253      7256      7257      7255      7253      7256      7258
      7255      7253      7256      7259      7257      7256      7259      7260
      7257      7256      7259      7261      7257      7256      7259      7262
      7258      7256      7259      7260      7258      7256      7259      7261
      7258      7256      7259      7262      7263      7264      7279      7280
      7263      7264      7279      7281      7263      7264      7279      7285
      7264      7263      7267      7268      7264      7263      7267      7269
      7264      7263      7267      7270      7264      7263      7271      7272
      7264      7263      7271      7273      7264      7263      7271      7274
      7264      7263      7275      7276      7264      7263      7275      7277
      7264      7263      7275      7278      7264      7279      7285      7282
      7265      7264      7263      7267      7265      7264      7263      7271
      7265      7264      7263      7275      7265      7264      7279      7280
      7265      7264      7279      7281      7265      7264      7279      7285
      7266      7264      7263      7267      7266      7264      7263      7271
      7266      7264      7263      7275      7266      7264      7279      7280
      7266      7264      7279      7281      7266      7264      7279      7285
      7267      7263      7264      7279      7267      7263      7271      7272
      7267      7263      7271      7273      7267      7263      7271      7274
      7267      7263      7275      7276      7267      7263      7275      7277
      7267      7263      7275      7278      7268      7267      7263      7271
      7268      7267      7263      7275      7269      7267      7263      7271
      7269      7267      7263      7275      7270      7267      7263      7271
      7270      7267      7263      7275      7271      7263      7264      7279
      7271      7263      7275      7276      7271      7263      7275      7277
      7271      7263      7275      7278      7272      7271      7263      7275
      7273      7271      7263      7275      7274      7271      7263      7275
      7275      7263      7264      7279      7279      7285      7282      7283
      7279      7285      7282      7284      7279      7285      7282      7286
      7280      7279      7285      7282      7281      7279      7285      7282
      7282      7286      7287      7288      7282      7286      7287      7289
      7282      7286      7287      7290      7283      7282      7286      7287
      7284      7282      7286      7287      7285      7282      7286      7287
      7286      7287      7290      7291      7286      7287      7290      7292
      7286      7287      7290      7298      7287      7290      7292      7293
      7287      7290      7298      7299      7287      7290      7298      7300
      7287      7290      7298      7301      7288      7287      7290      7291
      7288      7287      7290      7292      7288      7287      7290      7298
      7289      7287      7290      7291      7289      7287      7290      7292
      7289      7287      7290      7298      7290      7292      7293      7294
      7290      7292      7293      7295      7290      7298      7301      7302
      7291      7290      7292      7293      7291      7290      7298      7299
      7291      7290      7298      7300      7291      7290      7298      7301
      7292      7290      7298      7299      7292      7290      7298      7300
      7292      7290      7298      7301      7292      7293      7295      7296
      7292      7293      7295      7297      7292      7293      7295      7307
      7293      7292      7290      7298      7293      7295      7307      7308
      7293      7295      7307      7309      7293      7295      7307      7310
      7294      7293      7295      7296      7294      7293      7295      7297
      7294      7293      7295      7307      7295      7307      7310      7311
      7295      7307      7310      7312      7295      7307      7310      7313
      7296      7295      7307      7308      7296      7295      7307      7309
      7296      7295      7307      7310      7297      7295      7307      7308
      7297      7295      7307      7309      7297      7295      7307      7310
      7298      7301      7302      7303      7298      7301      7302      7304
      7299      7298      7301      7302      7300      7298      7301      7302
      7301      7302      7304      7305      7301      7302      7304      7306
      7301      7302      7304      7354      7302      7304      7354      7355
      7302      7304      7354      7356      7302      7304      7354      7357
      7303      7302      7304      7305      7303      7302      7304      7306
      7303      7302      7304      7354      7304      7354      7357      7358
      7304      7354      7357      7359      7304      7354      7357      7360
      7305      7304      7354      7355      7305      7304      7354      7356
      7305      7304      7354      7357      7306      7304      7354      7355
      7306      7304      7354      7356      7306      7304      7354      7357
      7307      7310      7313      7314      7307      7310      7313      7315
      7307      7310      7313      7316      7308      7307      7310      7311
      7308      7307      7310      7312      7308      7307      7310      7313
      7309      7307      7310      7311      7309      7307      7310      7312
      7309      7307      7310      7313      7310      7313      7316      7317
      7310      7313      7316      7318      7310      7313      7316      7319
      7311      7310      7313      7314      7311      7310      7313      7315
      7311      7310      7313      7316      7312      7310      7313      7314
      7312      7310      7313      7315      7312      7310      7313      7316
      7313      7316      7319      7320      7313      7316      7319      7321
      7313      7316      7319      7322      7314      7313      7316      7317
      7314      7313      7316      7318      7314      7313      7316      7319
      7315      7313      7316      7317      7315      7313      7316      7318
      7315      7313      7316      7319      7316      7319      7322      7323
      7316      7319      7322      7324      7316      7319      7322      7325
      7317      7316      7319      7320      7317      7316      7319      7321
      7317      7316      7319      7322      7318      7316      7319      7320
      7318      7316      7319      7321      7318      7316      7319      7322
      7319      7322      7325      7326      7319      7322      7325      7327
      7320      7319      7322      7323      7320      7319      7322      7324
      7320      7319      7322      7325      7321      7319      7322      7323
      7321      7319      7322      7324      7321      7319      7322      7325
      7322      7325      7327      7328      7322      7325      7327      7329
      7323      7322      7325      7326      7323      7322      7325      7327
      7324      7322      7325      7326      7324      7322      7325      7327
      7325      7327      7329      7330      7325      7327      7329      7331
      7325      7327      7329      7332      7326      7325      7327      7328
      7326      7325      7327      7329      7327      7329      7332      7333
      7327      7329      7332      7334      7327      7329      7332      7335
      7328      7327      7329      7330      7328      7327      7329      7331
      7328      7327      7329      7332      7329      7332      7335      7336
      7329      7332      7335      7337      7329      7332      7335      7338
      7330      7329      7332      7333      7330      7329      7332      7334
      7330      7329      7332      7335      7331      7329      7332      7333
      7331      7329      7332      7334      7331      7329      7332      7335
      7332      7335      7338      7339      7332      7335      7338      7340
      7332      7335      7338      7341      7333      7332      7335      7336
      7333      7332      7335      7337      7333      7332      7335      7338
      7334      7332      7335      7336      7334      7332      7335      7337
      7334      7332      7335      7338      7335      7338      7341      7342
      7335      7338      7341      7343      7335      7338      7341      7344
      7336      7335      7338      7339      7336      7335      7338      7340
      7336      7335      7338      7341      7337      7335      7338      7339
      7337      7335      7338      7340      7337      7335      7338      7341
      7338      7341      7344      7345      7338      7341      7344      7346
      7338      7341      7344      7347      7339      7338      7341      7342
      7339      7338      7341      7343      7339      7338      7341      7344
      7340      7338      7341      7342      7340      7338      7341      7343
      7340      7338      7341      7344      7341      7344      7347      7348
      7341      7344      7347      7349      7341      7344      7347      7350
      7342      7341      7344      7345      7342      7341      7344      7346
      7342      7341      7344      7347      7343      7341      7344      7345
      7343      7341      7344      7346      7343      7341      7344      7347
      7344      7347      7350      7351      7344      7347      7350      7352
      7344      7347      7350      7353      7345      7344      7347      7348
      7345      7344      7347      7349      7345      7344      7347      7350
      7346      7344      7347      7348      7346      7344      7347      7349
      7346      7344      7347      7350      7348      7347      7350      7351
      7348      7347      7350      7352      7348      7347      7350      7353
      7349      7347      7350      7351      7349      7347      7350      7352
      7349      7347      7350      7353      7354      7357      7360      7361
      7354      7357      7360      7362      7354      7357      7360      7363
      7355      7354      7357      7358      7355      7354      7357      7359
      7355      7354      7357      7360      7356      7354      7357      7358
      7356      7354      7357      7359      7356      7354      7357      7360
      7357      7360      7363      7364      7357      7360      7363      7365
      7357      7360      7363      7366      7358      7357      7360      7361
      7358      7357      7360      7362      7358      7357      7360      7363
      7359      7357      7360      7361      7359      7357      7360      7362
      7359      7357      7360      7363      7360      7363      7366      7367
      7360      7363      7366      7368      7360      7363      7366      7369
      7361      7360      7363      7364      7361      7360      7363      7365
      7361      7360      7363      7366      7362      7360      7363      7364
      7362      7360      7363      7365      7362      7360      7363      7366
      7363      7366      7369      7370      7363      7366      7369      7371
      7363      7366      7369      7372      7364      7363      7366      7367
      7364      7363      7366      7368      7364      7363      7366      7369
      7365      7363      7366      7367      7365      7363      7366      7368
      7365      7363      7366      7369      7366      7369      7372      7373
      7366      7369      7372      7374      7367      7366      7369      7370
      7367      7366      7369      7371      7367      7366      7369      7372
      7368      7366      7369      7370      7368      7366      7369      7371
      7368      7366      7369      7372      7369      7372      7374      7375
      7369      7372      7374      7376      7370      7369      7372      7373
      7370      7369      7372      7374      7371      7369      7372      7373
      7371      7369      7372      7374      7372      7374      7376      7377
      7372      7374      7376      7378      7372      7374      7376      7379
      7373      7372      7374      7375      7373      7372      7374      7376
      7374      7376      7379      7380      7374      7376      7379      7381
      7374      7376      7379      7382      7375      7374      7376      7377
      7375      7374      7376      7378      7375      7374      7376      7379
      7376      7379      7382      7383      7376      7379      7382      7384
      7376      7379      7382      7385      7377      7376      7379      7380
      7377      7376      7379      7381      7377      7376      7379      7382
      7378      7376      7379      7380      7378      7376      7379      7381
      7378      7376      7379      7382      7379      7382      7385      7386
      7379      7382      7385      7387      7379      7382      7385      7388
      7380      7379      7382      7383      7380      7379      7382      7384
      7380      7379      7382      7385      7381      7379      7382      7383
      7381      7379      7382      7384      7381      7379      7382      7385
      7382      7385      7388      7389      7382      7385      7388      7390
      7382      7385      7388      7391      7383      7382      7385      7386
      7383      7382      7385      7387      7383      7382      7385      7388
      7384      7382      7385      7386      7384      7382      7385      7387
      7384      7382      7385      7388      7385      7388      7391      7392
      7385      7388      7391      7393      7385      7388      7391      7394
      7386      7385      7388      7389      7386      7385      7388      7390
      7386      7385      7388      7391      7387      7385      7388      7389
      7387      7385      7388      7390      7387      7385      7388      7391
      7388      7391      7394      7395      7388      7391      7394      7396
      7388      7391      7394      7397      7389      7388      7391      7392
      7389      7388      7391      7393      7389      7388      7391      7394
      7390      7388      7391      7392      7390      7388      7391      7393
      7390      7388      7391      7394      7391      7394      7397      7398
      7391      7394      7397      7399      7391      7394      7397      7400
      7392      7391      7394      7395      7392      7391      7394      7396
      7392      7391      7394      7397      7393      7391      7394      7395
      7393      7391      7394      7396      7393      7391      7394      7397
      7395      7394      7397      7398      7395      7394      7397      7399
      7395      7394      7397      7400      7396      7394      7397      7398
      7396      7394      7397      7399      7396      7394      7397      7400
      7401      7402      7417      7418      7401      7402      7417      7419
      7401      7402      7417      7423      7402      7401      7405      7406
      7402      7401      7405      7407      7402      7401      7405      7408
      7402      7401      7409      7410      7402      7401      7409      7411
      7402      7401      7409      7412      7402      7401      7413      7414
      7402      7401      7413      7415      7402      7401      7413      7416
      7402      7417      7423      7420      7403      7402      7401      7405
      7403      7402      7401      7409      7403      7402      7401      7413
      7403      7402      7417      7418      7403      7402      7417      7419
      7403      7402      7417      7423      7404      7402      7401      7405
      7404      7402      7401      7409      7404      7402      7401      7413
      7404      7402      7417      7418      7404      7402      7417      7419
      7404      7402      7417      7423      7405      7401      7402      7417
      7405      7401      7409      7410      7405      7401      7409      7411
      7405      7401      7409      7412      7405      7401      7413      7414
      7405      7401      7413      7415      7405      7401      7413      7416
      7406      7405      7401      7409      7406      7405      7401      7413
      7407      7405      7401      7409      7407      7405      7401      7413
      7408      7405      7401      7409      7408      7405      7401      7413
      7409      7401      7402      7417      7409      7401      7413      7414
      7409      7401      7413      7415      7409      7401      7413      7416
      7410      7409      7401      7413      7411      7409      7401      7413
      7412      7409      7401      7413      7413      7401      7402      7417
      7417      7423      7420      7421      7417      7423      7420      7422
      7417      7423      7420      7424      7418      7417      7423      7420
      7419      7417      7423      7420      7420      7424      7425      7426
      7420      7424      7425      7427      7420      7424      7425      7428
      7421      7420      7424      7425      7422      7420      7424      7425
      7423      7420      7424      7425      7424      7425      7428      7429
      7424      7425      7428      7430      7424      7425      7428      7436
      7425      7428      7430      7431      7425      7428      7436      7437
      7425      7428      7436      7438      7425      7428      7436      7439
      7426      7425      7428      7429      7426      7425      7428      7430
      7426      7425      7428      7436      7427      7425      7428      7429
      7427      7425      7428      7430      7427      7425      7428      7436
      7428      7430      7431      7432      7428      7430      7431      7433
      7428      7436      7439      7440      7429      7428      7430      7431
      7429      7428      7436      7437      7429      7428      7436      7438
      7429      7428      7436      7439      7430      7428      7436      7437
      7430      7428      7436      7438      7430      7428      7436      7439
      7430      7431      7433      7434      7430      7431      7433      7435
      7430      7431      7433      7445      7431      7430      7428      7436
      7431      7433      7445      7446      7431      7433      7445      7447
      7431      7433      7445      7448      7432      7431      7433      7434
      7432      7431      7433      7435      7432      7431      7433      7445
      7433      7445      7448      7449      7433      7445      7448      7450
      7433      7445      7448      7451      7434      7433      7445      7446
      7434      7433      7445      7447      7434      7433      7445      7448
      7435      7433      7445      7446      7435      7433      7445      7447
      7435      7433      7445      7448      7436      7439      7440      7441
      7436      7439      7440      7442      7437      7436      7439      7440
      7438      7436      7439      7440      7439      7440      7442      7443
      7439      7440      7442      7444      7439      7440      7442      7492
      7440      7442      7492      7493      7440      7442      7492      7494
      7440      7442      7492      7495      7441      7440      7442      7443
      7441      7440      7442      7444      7441      7440      7442      7492
      7442      7492      7495      7496      7442      7492      7495      7497
      7442      7492      7495      7498      7443      7442      7492      7493
      7443      7442      7492      7494      7443      7442      7492      7495
      7444      7442      7492      7493      7444      7442      7492      7494
      7444      7442      7492      7495      7445      7448      7451      7452
      7445      7448      7451      7453      7445      7448      7451      7454
      7446      7445      7448      7449      7446      7445      7448      7450
      7446      7445      7448      7451      7447      7445      7448      7449
      7447      7445      7448      7450      7447      7445      7448      7451
      7448      7451      7454      7455      7448      7451      7454      7456
      7448      7451      7454      7457      7449      7448      7451      7452
      7449      7448      7451      7453      7449      7448      7451      7454
      7450      7448      7451      7452      7450      7448      7451      7453
      7450      7448      7451      7454      7451      7454      7457      7458
      7451      7454      7457      7459      7451      7454      7457      7460
      7452      7451      7454      7455      7452      7451      7454      7456
      7452      7451      7454      7457      7453      7451      7454      7455
      7453      7451      7454      7456      7453      7451      7454      7457
      7454      7457      7460      7461      7454      7457      7460      7462
      7454      7457      7460      7463      7455      7454      7457      7458
      7455      7454      7457      7459      7455      7454      7457      7460
      7456      7454      7457      7458      7456      7454      7457      7459
      7456      7454      7457      7460      7457      7460      7463      7464
      7457      7460      7463      7465      7458      7457      7460      7461
      7458      7457      7460      7462      7458      7457      7460      7463
      7459      7457      7460      7461      7459      7457      7460      7462
      7459      7457      7460      7463      7460      7463      7465      7466
      7460      7463      7465      7467      7461      7460      7463      7464
      7461      7460      7463      7465      7462      7460      7463      7464
      7462      7460      7463      7465      7463      7465      7467      7468
      7463      7465      7467      7469      7463      7465      7467      7470
      7464      7463      7465      7466      7464      7463      7465      7467
      7465      7467      7470      7471      7465      7467      7470      7472
      7465      7467      7470      7473      7466      7465      7467      7468
      7466      7465      7467      7469      7466      7465      7467      7470
      7467      7470      7473      7474      7467      7470      7473      7475
      7467      7470      7473      7476      7468      7467      7470      7471
      7468      7467      7470      7472      7468      7467      7470      7473
      7469      7467      7470      7471      7469      7467      7470      7472
      7469      7467      7470      7473      7470      7473      7476      7477
      7470      7473      7476      7478      7470      7473      7476      7479
      7471      7470      7473      7474      7471      7470      7473      7475
      7471      7470      7473      7476      7472      7470      7473      7474
      7472      7470      7473      7475      7472      7470      7473      7476
      7473      7476      7479      7480      7473      7476      7479      7481
      7473      7476      7479      7482      7474      7473      7476      7477
      7474      7473      7476      7478      7474      7473      7476      7479
      7475      7473      7476      7477      7475      7473      7476      7478
      7475      7473      7476      7479      7476      7479      7482      7483
      7476      7479      7482      7484      7476      7479      7482      7485
      7477      7476      7479      7480      7477      7476      7479      7481
      7477      7476      7479      7482      7478      7476      7479      7480
      7478      7476      7479      7481      7478      7476      7479      7482
      7479      7482      7485      7486      7479      7482      7485      7487
      7479      7482      7485      7488      7480      7479      7482      7483
      7480      7479      7482      7484      7480      7479      7482      7485
      7481      7479      7482      7483      7481      7479      7482      7484
      7481      7479      7482      7485      7482      7485      7488      7489
      7482      7485      7488      7490      7482      7485      7488      7491
      7483      7482      7485      7486      7483      7482      7485      7487
      7483      7482      7485      7488      7484      7482      7485      7486
      7484      7482      7485      7487      7484      7482      7485      7488
      7486      7485      7488      7489      7486      7485      7488      7490
      7486      7485      7488      7491      7487      7485      7488      7489
      7487      7485      7488      7490      7487      7485      7488      7491
      7492      7495      7498      7499      7492      7495      7498      7500
      7492      7495      7498      7501      7493      7492      7495      7496
      7493      7492      7495      7497      7493      7492      7495      7498
      7494      7492      7495      7496      7494      7492      7495      7497
      7494      7492      7495      7498      7495      7498      7501      7502
      7495      7498      7501      7503      7495      7498      7501      7504
      7496      7495      7498      7499      7496      7495      7498      7500
      7496      7495      7498      7501      7497      7495      7498      7499
      7497      7495      7498      7500      7497      7495      7498      7501
      7498      7501      7504      7505      7498      7501      7504      7506
      7498      7501      7504      7507      7499      7498      7501      7502
      7499      7498      7501      7503      7499      7498      7501      7504
      7500      7498      7501      7502      7500      7498      7501      7503
      7500      7498      7501      7504      7501      7504      7507      7508
      7501      7504      7507      7509      7501      7504      7507      7510
      7502      7501      7504      7505      7502      7501      7504      7506
      7502      7501      7504      7507      7503      7501      7504      7505
      7503      7501      7504      7506      7503      7501      7504      7507
      7504      7507      7510      7511      7504      7507      7510      7512
      7505      7504      7507      7508      7505      7504      7507      7509
      7505      7504      7507      7510      7506      7504      7507      7508
      7506      7504      7507      7509      7506      7504      7507      7510
      7507      7510      7512      7513      7507      7510      7512      7514
      7508      7507      7510      7511      7508      7507      7510      7512
      7509      7507      7510      7511      7509      7507      7510      7512
      7510      7512      7514      7515      7510      7512      7514      7516
      7510      7512      7514      7517      7511      7510      7512      7513
      7511      7510      7512      7514      7512      7514      7517      7518
      7512      7514      7517      7519      7512      7514      7517      7520
      7513      7512      7514      7515      7513      7512      7514      7516
      7513      7512      7514      7517      7514      7517      7520      7521
      7514      7517      7520      7522      7514      7517      7520      7523
      7515      7514      7517      7518      7515      7514      7517      7519
      7515      7514      7517      7520      7516      7514      7517      7518
      7516      7514      7517      7519      7516      7514      7517      7520
      7517      7520      7523      7524      7517      7520      7523      7525
      7517      7520      7523      7526      7518      7517      7520      7521
      7518      7517      7520      7522      7518      7517      7520      7523
      7519      7517      7520      7521      7519      7517      7520      7522
      7519      7517      7520      7523      7520      7523      7526      7527
      7520      7523      7526      7528      7520      7523      7526      7529
      7521      7520      7523      7524      7521      7520      7523      7525
      7521      7520      7523      7526      7522      7520      7523      7524
      7522      7520      7523      7525      7522      7520      7523      7526
      7523      7526      7529      7530      7523      7526      7529      7531
      7523      7526      7529      7532      7524      7523      7526      7527
      7524      7523      7526      7528      7524      7523      7526      7529
      7525      7523      7526      7527      7525      7523      7526      7528
      7525      7523      7526      7529      7526      7529      7532      7533
      7526      7529      7532      7534      7526      7529      7532      7535
      7527      7526      7529      7530      7527      7526      7529      7531
      7527      7526      7529      7532      7528      7526      7529      7530
      7528      7526      7529      7531      7528      7526      7529      7532
      7529      7532      7535      7536      7529      7532      7535      7537
      7529      7532      7535      7538      7530      7529      7532      7533
      7530      7529      7532      7534      7530      7529      7532      7535
      7531      7529      7532      7533      7531      7529      7532      7534
      7531      7529      7532      7535      7533      7532      7535      7536
      7533      7532      7535      7537      7533      7532      7535      7538
      7534      7532      7535      7536      7534      7532      7535      7537
      7534      7532      7535      7538      7539      7540      7555      7556
      7539      7540      7555      7557      7539      7540      7555      7561
      7540      7539      7543      7544      7540      7539      7543      7545
      7540      7539      7543      7546      7540      7539      7547      7548
      7540      7539      7547      7549      7540      7539      7547      7550
      7540      7539      7551      7552      7540      7539      7551      7553
      7540      7539      7551      7554      7540      7555      7561      7558
      7541      7540      7539      7543      7541      7540      7539      7547
      7541      7540      7539      7551      7541      7540      7555      7556
      7541      7540      7555      7557      7541      7540      7555      7561
      7542      7540      7539      7543      7542      7540      7539      7547
      7542      7540      7539      7551      7542      7540      7555      7556
      7542      7540      7555      7557      7542      7540      7555      7561
      7543      7539      7540      7555      7543      7539      7547      7548
      7543      7539      7547      7549      7543      7539      7547      7550
      7543      7539      7551      7552      7543      7539      7551      7553
      7543      7539      7551      7554      7544      7543      7539      7547
      7544      7543      7539      7551      7545      7543      7539      7547
      7545      7543      7539      7551      7546      7543      7539      7547
      7546      7543      7539      7551      7547      7539      7540      7555
      7547      7539      7551      7552      7547      7539      7551      7553
      7547      7539      7551      7554      7548      7547      7539      7551
      7549      7547      7539      7551      7550      7547      7539      7551
      7551      7539      7540      7555      7555      7561      7558      7559
      7555      7561      7558      7560      7555      7561      7558      7562
      7556      7555      7561      7558      7557      7555      7561      7558
      7558      7562      7563      7564      7558      7562      7563      7565
      7558      7562      7563      7566      7559      7558      7562      7563
      7560      7558      7562      7563      7561      7558      7562      7563
      7562      7563      7566      7567      7562      7563      7566      7568
      7562      7563      7566      7574      7563      7566      7568      7569
      7563      7566      7574      7575      7563      7566      7574      7576
      7563      7566      7574      7577      7564      7563      7566      7567
      7564      7563      7566      7568      7564      7563      7566      7574
      7565      7563      7566      7567      7565      7563      7566      7568
      7565      7563      7566      7574      7566      7568      7569      7570
      7566      7568      7569      7571      7566      7574      7577      7578
      7567      7566      7568      7569      7567      7566      7574      7575
      7567      7566      7574      7576      7567      7566      7574      7577
      7568      7566      7574      7575      7568      7566      7574      7576
      7568      7566      7574      7577      7568      7569      7571      7572
      7568      7569      7571      7573      7568      7569      7571      7583
      7569      7568      7566      7574      7569      7571      7583      7584
      7569      7571      7583      7585      7569      7571      7583      7586
      7570      7569      7571      7572      7570      7569      7571      7573
      7570      7569      7571      7583      7571      7583      7586      7587
      7571      7583      7586      7588      7571      7583      7586      7589
      7572      7571      7583      7584      7572      7571      7583      7585
      7572      7571      7583      7586      7573      7571      7583      7584
      7573      7571      7583      7585      7573      7571      7583      7586
      7574      7577      7578      7579      7574      7577      7578      7580
      7575      7574      7577      7578      7576      7574      7577      7578
      7577      7578      7580      7581      7577      7578      7580      7582
      7577      7578      7580      7630      7578      7580      7630      7631
      7578      7580      7630      7632      7578      7580      7630      7633
      7579      7578      7580      7581      7579      7578      7580      7582
      7579      7578      7580      7630      7580      7630      7633      7634
      7580      7630      7633      7635      7580      7630      7633      7636
      7581      7580      7630      7631      7581      7580      7630      7632
      7581      7580      7630      7633      7582      7580      7630      7631
      7582      7580      7630      7632      7582      7580      7630      7633
      7583      7586      7589      7590      7583      7586      7589      7591
      7583      7586      7589      7592      7584      7583      7586      7587
      7584      7583      7586      7588      7584      7583      7586      7589
      7585      7583      7586      7587      7585      7583      7586      7588
      7585      7583      7586      7589      7586      7589      7592      7593
      7586      7589      7592      7594      7586      7589      7592      7595
      7587      7586      7589      7590      7587      7586      7589      7591
      7587      7586      7589      7592      7588      7586      7589      7590
      7588      7586      7589      7591      7588      7586      7589      7592
      7589      7592      7595      7596      7589      7592      7595      7597
      7589      7592      7595      7598      7590      7589      7592      7593
      7590      7589      7592      7594      7590      7589      7592      7595
      7591      7589      7592      7593      7591      7589      7592      7594
      7591      7589      7592      7595      7592      7595      7598      7599
      7592      7595      7598      7600      7592      7595      7598      7601
      7593      7592      7595      7596      7593      7592      7595      7597
      7593      7592      7595      7598      7594      7592      7595      7596
      7594      7592      7595      7597      7594      7592      7595      7598
      7595      7598      7601      7602      7595      7598      7601      7603
      7596      7595      7598      7599      7596      7595      7598      7600
      7596      7595      7598      7601      7597      7595      7598      7599
      7597      7595      7598      7600      7597      7595      7598      7601
      7598      7601      7603      7604      7598      7601      7603      7605
      7599      7598      7601      7602      7599      7598      7601      7603
      7600      7598      7601      7602      7600      7598      7601      7603
      7601      7603      7605      7606      7601      7603      7605      7607
      7601      7603      7605      7608      7602      7601      7603      7604
      7602      7601      7603      7605      7603      7605      7608      7609
      7603      7605      7608      7610      7603      7605      7608      7611
      7604      7603      7605      7606      7604      7603      7605      7607
      7604      7603      7605      7608      7605      7608      7611      7612
      7605      7608      7611      7613      7605      7608      7611      7614
      7606      7605      7608      7609      7606      7605      7608      7610
      7606      7605      7608      7611      7607      7605      7608      7609
      7607      7605      7608      7610      7607      7605      7608      7611
      7608      7611      7614      7615      7608      7611      7614      7616
      7608      7611      7614      7617      7609      7608      7611      7612
      7609      7608      7611      7613      7609      7608      7611      7614
      7610      7608      7611      7612      7610      7608      7611      7613
      7610      7608      7611      7614      7611      7614      7617      7618
      7611      7614      7617      7619      7611      7614      7617      7620
      7612      7611      7614      7615      7612      7611      7614      7616
      7612      7611      7614      7617      7613      7611      7614      7615
      7613      7611      7614      7616      7613      7611      7614      7617
      7614      7617      7620      7621      7614      7617      7620      7622
      7614      7617      7620      7623      7615      7614      7617      7618
      7615      7614      7617      7619      7615      7614      7617      7620
      7616      7614      7617      7618      7616      7614      7617      7619
      7616      7614      7617      7620      7617      7620      7623      7624
      7617      7620      7623      7625      7617      7620      7623      7626
      7618      7617      7620      7621      7618      7617      7620      7622
      7618      7617      7620      7623      7619      7617      7620      7621
      7619      7617      7620      7622      7619      7617      7620      7623
      7620      7623      7626      7627      7620      7623      7626      7628
      7620      7623      7626      7629      7621      7620      7623      7624
      7621      7620      7623      7625      7621      7620      7623      7626
      7622      7620      7623      7624      7622      7620      7623      7625
      7622      7620      7623      7626      7624      7623      7626      7627
      7624      7623      7626      7628      7624      7623      7626      7629
      7625      7623      7626      7627      7625      7623      7626      7628
      7625      7623      7626      7629      7630      7633      7636      7637
      7630      7633      7636      7638      7630      7633      7636      7639
      7631      7630      7633      7634      7631      7630      7633      7635
      7631      7630      7633      7636      7632      7630      7633      7634
      7632      7630      7633      7635      7632      7630      7633      7636
      7633      7636      7639      7640      7633      7636      7639      7641
      7633      7636      7639      7642      7634      7633      7636      7637
      7634      7633      7636      7638      7634      7633      7636      7639
      7635      7633      7636      7637      7635      7633      7636      7638
      7635      7633      7636      7639      7636      7639      7642      7643
      7636      7639      7642      7644      7636      7639      7642      7645
      7637      7636      7639      7640      7637      7636      7639      7641
      7637      7636      7639      7642      7638      7636      7639      7640
      7638      7636      7639      7641      7638      7636      7639      7642
      7639      7642      7645      7646      7639      7642      7645      7647
      7639      7642      7645      7648      7640      7639      7642      7643
      7640      7639      7642      7644      7640      7639      7642      7645
      7641      7639      7642      7643      7641      7639      7642      7644
      7641      7639      7642      7645      7642      7645      7648      7649
      7642      7645      7648      7650      7643      7642      7645      7646
      7643      7642      7645      7647      7643      7642      7645      7648
      7644      7642      7645      7646      7644      7642      7645      7647
      7644      7642      7645      7648      7645      7648      7650      7651
      7645      7648      7650      7652      7646      7645      7648      7649
      7646      7645      7648      7650      7647      7645      7648      7649
      7647      7645      7648      7650      7648      7650      7652      7653
      7648      7650      7652      7654      7648      7650      7652      7655
      7649      7648      7650      7651      7649      7648      7650      7652
      7650      7652      7655      7656      7650      7652      7655      7657
      7650      7652      7655      7658      7651      7650      7652      7653
      7651      7650      7652      7654      7651      7650      7652      7655
      7652      7655      7658      7659      7652      7655      7658      7660
      7652      7655      7658      7661      7653      7652      7655      7656
      7653      7652      7655      7657      7653      7652      7655      7658
      7654      7652      7655      7656      7654      7652      7655      7657
      7654      7652      7655      7658      7655      7658      7661      7662
      7655      7658      7661      7663      7655      7658      7661      7664
      7656      7655      7658      7659      7656      7655      7658      7660
      7656      7655      7658      7661      7657      7655      7658      7659
      7657      7655      7658      7660      7657      7655      7658      7661
      7658      7661      7664      7665      7658      7661      7664      7666
      7658      7661      7664      7667      7659      7658      7661      7662
      7659      7658      7661      7663      7659      7658      7661      7664
      7660      7658      7661      7662      7660      7658      7661      7663
      7660      7658      7661      7664      7661      7664      7667      7668
      7661      7664      7667      7669      7661      7664      7667      7670
      7662      7661      7664      7665      7662      7661      7664      7666
      7662      7661      7664      7667      7663      7661      7664      7665
      7663      7661      7664      7666      7663      7661      7664      7667
      7664      7667      7670      7671      7664      7667      7670      7672
      7664      7667      7670      7673      7665      7664      7667      7668
      7665      7664      7667      7669      7665      7664      7667      7670
      7666      7664      7667      7668      7666      7664      7667      7669
      7666      7664      7667      7670      7667      7670      7673      7674
      7667      7670      7673      7675      7667      7670      7673      7676
      7668      7667      7670      7671      7668      7667      7670      7672
      7668      7667      7670      7673      7669      7667      7670      7671
      7669      7667      7670      7672      7669      7667      7670      7673
      7671      7670      7673      7674      7671      7670      7673      7675
      7671      7670      7673      7676      7672      7670      7673      7674
      7672      7670      7673      7675      7672      7670      7673      7676
      7677      7678      7693      7694      7677      7678      7693      7695
      7677      7678      7693      7699      7678      7677      7681      7682
      7678      7677      7681      7683      7678      7677      7681      7684
      7678      7677      7685      7686      7678      7677      7685      7687
      7678      7677      7685      7688      7678      7677      7689      7690
      7678      7677      7689      7691      7678      7677      7689      7692
      7678      7693      7699      7696      7679      7678      7677      7681
      7679      7678      7677      7685      7679      7678      7677      7689
      7679      7678      7693      7694      7679      7678      7693      7695
      7679      7678      7693      7699      7680      7678      7677      7681
      7680      7678      7677      7685      7680      7678      7677      7689
      7680      7678      7693      7694      7680      7678      7693      7695
      7680      7678      7693      7699      7681      7677      7678      7693
      7681      7677      7685      7686      7681      7677      7685      7687
      7681      7677      7685      7688      7681      7677      7689      7690
      7681      7677      7689      7691      7681      7677      7689      7692
      7682      7681      7677      7685      7682      7681      7677      7689
      7683      7681      7677      7685      7683      7681      7677      7689
      7684      7681      7677      7685      7684      7681      7677      7689
      7685      7677      7678      7693      7685      7677      7689      7690
      7685      7677      7689      7691      7685      7677      7689      7692
      7686      7685      7677      7689      7687      7685      7677      7689
      7688      7685      7677      7689      7689      7677      7678      7693
      7693      7699      7696      7697      7693      7699      7696      7698
      7693      7699      7696      7700      7694      7693      7699      7696
      7695      7693      7699      7696      7696      7700      7701      7702
      7696      7700      7701      7703      7696      7700      7701      7704
      7697      7696      7700      7701      7698      7696      7700      7701
      7699      7696      7700      7701      7700      7701      7704      7705
      7700      7701      7704      7706      7700      7701      7704      7712
      7701      7704      7706      7707      7701      7704      7712      7713
      7701      7704      7712      7714      7701      7704      7712      7715
      7702      7701      7704      7705      7702      7701      7704      7706
      7702      7701      7704      7712      7703      7701      7704      7705
      7703      7701      7704      7706      7703      7701      7704      7712
      7704      7706      7707      7708      7704      7706      7707      7709
      7704      7712      7715      7716      7705      7704      7706      7707
      7705      7704      7712      7713      7705      7704      7712      7714
      7705      7704      7712      7715      7706      7704      7712      7713
      7706      7704      7712      7714      7706      7704      7712      7715
      7706      7707      7709      7710      7706      7707      7709      7711
      7706      7707      7709      7721      7707      7706      7704      7712
      7707      7709      7721      7722      7707      7709      7721      7723
      7707      7709      7721      7724      7708      7707      7709      7710
      7708      7707      7709      7711      7708      7707      7709      7721
      7709      7721      7724      7725      7709      7721      7724      7726
      7709      7721      7724      7727      7710      7709      7721      7722
      7710      7709      7721      7723      7710      7709      7721      7724
      7711      7709      7721      7722      7711      7709      7721      7723
      7711      7709      7721      7724      7712      7715      7716      7717
      7712      7715      7716      7718      7713      7712      7715      7716
      7714      7712      7715      7716      7715      7716      7718      7719
      7715      7716      7718      7720      7715      7716      7718      7768
      7716      7718      7768      7769      7716      7718      7768      7770
      7716      7718      7768      7771      7717      7716      7718      7719
      7717      7716      7718      7720      7717      7716      7718      7768
      7718      7768      7771      7772      7718      7768      7771      7773
      7718      7768      7771      7774      7719      7718      7768      7769
      7719      7718      7768      7770      7719      7718      7768      7771
      7720      7718      7768      7769      7720      7718      7768      7770
      7720      7718      7768      7771      7721      7724      7727      7728
      7721      7724      7727      7729      7721      7724      7727      7730
      7722      7721      7724      7725      7722      7721      7724      7726
      7722      7721      7724      7727      7723      7721      7724      7725
      7723      7721      7724      7726      7723      7721      7724      7727
      7724      7727      7730      7731      7724      7727      7730      7732
      7724      7727      7730      7733      7725      7724      7727      7728
      7725      7724      7727      7729      7725      7724      7727      7730
      7726      7724      7727      7728      7726      7724      7727      7729
      7726      7724      7727      7730      7727      7730      7733      7734
      7727      7730      7733      7735      7727      7730      7733      7736
      7728      7727      7730      7731      7728      7727      7730      7732
      7728      7727      7730      7733      7729      7727      7730      7731
      7729      7727      7730      7732      7729      7727      7730      7733
      7730      7733      7736      7737      7730      7733      7736      7738
      7730      7733      7736      7739      7731      7730      7733      7734
      7731      7730      7733      7735      7731      7730      7733      7736
      7732      7730      7733      7734      7732      7730      7733      7735
      7732      7730      7733      7736      7733      7736      7739      7740
      7733      7736      7739      7741      7734      7733      7736      7737
      7734      7733      7736      7738      7734      7733      7736      7739
      7735      7733      7736      7737      7735      7733      7736      7738
      7735      7733      7736      7739      7736      7739      7741      7742
      7736      7739      7741      7743      7737      7736      7739      7740
      7737      7736      7739      7741      7738      7736      7739      7740
      7738      7736      7739      7741      7739      7741      7743      7744
      7739      7741      7743      7745      7739      7741      7743      7746
      7740      7739      7741      7742      7740      7739      7741      7743
      7741      7743      7746      7747      7741      7743      7746      7748
      7741      7743      7746      7749      7742      7741      7743      7744
      7742      7741      7743      7745      7742      7741      7743      7746
      7743      7746      7749      7750      7743      7746      7749      7751
      7743      7746      7749      7752      7744      7743      7746      7747
      7744      7743      7746      7748      7744      7743      7746      7749
      7745      7743      7746      7747      7745      7743      7746      7748
      7745      7743      7746      7749      7746      7749      7752      7753
      7746      7749      7752      7754      7746      7749      7752      7755
      7747      7746      7749      7750      7747      7746      7749      7751
      7747      7746      7749      7752      7748      7746      7749      7750
      7748      7746      7749      7751      7748      7746      7749      7752
      7749      7752      7755      7756      7749      7752      7755      7757
      7749      7752      7755      7758      7750      7749      7752      7753
      7750      7749      7752      7754      7750      7749      7752      7755
      7751      7749      7752      7753      7751      7749      7752      7754
      7751      7749      7752      7755      7752      7755      7758      7759
      7752      7755      7758      7760      7752      7755      7758      7761
      7753      7752      7755      7756      7753      7752      7755      7757
      7753      7752      7755      7758      7754      7752      7755      7756
      7754      7752      7755      7757      7754      7752      7755      7758
      7755      7758      7761      7762      7755      7758      7761      7763
      7755      7758      7761      7764      7756      7755      7758      7759
      7756      7755      7758      7760      7756      7755      7758      7761
      7757      7755      7758      7759      7757      7755      7758      7760
      7757      7755      7758      7761      7758      7761      7764      7765
      7758      7761      7764      7766      7758      7761      7764      7767
      7759      7758      7761      7762      7759      7758      7761      7763
      7759      7758      7761      7764      7760      7758      7761      7762
      7760      7758      7761      7763      7760      7758      7761      7764
      7762      7761      7764      7765      7762      7761      7764      7766
      7762      7761      7764      7767      7763      7761      7764      7765
      7763      7761      7764      7766      7763      7761      7764      7767
      7768      7771      7774      7775      7768      7771      7774      7776
      7768      7771      7774      7777      7769      7768      7771      7772
      7769      7768      7771      7773      7769      7768      7771      7774
      7770      7768      7771      7772      7770      7768      7771      7773
      7770      7768      7771      7774      7771      7774      7777      7778
      7771      7774      7777      7779      7771      7774      7777      7780
      7772      7771      7774      7775      7772      7771      7774      7776
      7772      7771      7774      7777      7773      7771      7774      7775
      7773      7771      7774      7776      7773      7771      7774      7777
      7774      7777      7780      7781      7774      7777      7780      7782
      7774      7777      7780      7783      7775      7774      7777      7778
      7775      7774      7777      7779      7775      7774      7777      7780
      7776      7774      7777      7778      7776      7774      7777      7779
      7776      7774      7777      7780      7777      7780      7783      7784
      7777      7780      7783      7785      7777      7780      7783      7786
      7778      7777      7780      7781      7778      7777      7780      7782
      7778      7777      7780      7783      7779      7777      7780      7781
      7779      7777      7780      7782      7779      7777      7780      7783
      7780      7783      7786      7787      7780      7783      7786      7788
      7781      7780      7783      7784      7781      7780      7783      7785
      7781      7780      7783      7786      7782      7780      7783      7784
      7782      7780      7783      7785      7782      7780      7783      7786
      7783      7786      7788      7789      7783      7786      7788      7790
      7784      7783      7786      7787      7784      7783      7786      7788
      7785      7783      7786      7787      7785      7783      7786      7788
      7786      7788      7790      7791      7786      7788      7790      7792
      7786      7788      7790      7793      7787      7786      7788      7789
      7787      7786      7788      7790      7788      7790      7793      7794
      7788      7790      7793      7795      7788      7790      7793      7796
      7789      7788      7790      7791      7789      7788      7790      7792
      7789      7788      7790      7793      7790      7793      7796      7797
      7790      7793      7796      7798      7790      7793      7796      7799
      7791      7790      7793      7794      7791      7790      7793      7795
      7791      7790      7793      7796      7792      7790      7793      7794
      7792      7790      7793      7795      7792      7790      7793      7796
      7793      7796      7799      7800      7793      7796      7799      7801
      7793      7796      7799      7802      7794      7793      7796      7797
      7794      7793      7796      7798      7794      7793      7796      7799
      7795      7793      7796      7797      7795      7793      7796      7798
      7795      7793      7796      7799      7796      7799      7802      7803
      7796      7799      7802      7804      7796      7799      7802      7805
      7797      7796      7799      7800      7797      7796      7799      7801
      7797      7796      7799      7802      7798      7796      7799      7800
      7798      7796      7799      7801      7798      7796      7799      7802
      7799      7802      7805      7806      7799      7802      7805      7807
      7799      7802      7805      7808      7800      7799      7802      7803
      7800      7799      7802      7804      7800      7799      7802      7805
      7801      7799      7802      7803      7801      7799      7802      7804
      7801      7799      7802      7805      7802      7805      7808      7809
      7802      7805      7808      7810      7802      7805      7808      7811
      7803      7802      7805      7806      7803      7802      7805      7807
      7803      7802      7805      7808      7804      7802      7805      7806
      7804      7802      7805      7807      7804      7802      7805      7808
      7805      7808      7811      7812      7805      7808      7811      7813
      7805      7808      7811      7814      7806      7805      7808      7809
      7806      7805      7808      7810      7806      7805      7808      7811
      7807      7805      7808      7809      7807      7805      7808      7810
      7807      7805      7808      7811      7809      7808      7811      7812
      7809      7808      7811      7813      7809      7808      7811      7814
      7810      7808      7811      7812      7810      7808      7811      7813
      7810      7808      7811      7814      7815      7816      7831      7832
      7815      7816      7831      7833      7815      7816      7831      7837
      7816      7815      7819      7820      7816      7815      7819      7821
      7816      7815      7819      7822      7816      7815      7823      7824
      7816      7815      7823      7825      7816      7815      7823      7826
      7816      7815      7827      7828      7816      7815      7827      7829
      7816      7815      7827      7830      7816      7831      7837      7834
      7817      7816      7815      7819      7817      7816      7815      7823
      7817      7816      7815      7827      7817      7816      7831      7832
      7817      7816      7831      7833      7817      7816      7831      7837
      7818      7816      7815      7819      7818      7816      7815      7823
      7818      7816      7815      7827      7818      7816      7831      7832
      7818      7816      7831      7833      7818      7816      7831      7837
      7819      7815      7816      7831      7819      7815      7823      7824
      7819      7815      7823      7825      7819      7815      7823      7826
      7819      7815      7827      7828      7819      7815      7827      7829
      7819      7815      7827      7830      7820      7819      7815      7823
      7820      7819      7815      7827      7821      7819      7815      7823
      7821      7819      7815      7827      7822      7819      7815      7823
      7822      7819      7815      7827      7823      7815      7816      7831
      7823      7815      7827      7828      7823      7815      7827      7829
      7823      7815      7827      7830      7824      7823      7815      7827
      7825      7823      7815      7827      7826      7823      7815      7827
      7827      7815      7816      7831      7831      7837      7834      7835
      7831      7837      7834      7836      7831      7837      7834      7838
      7832      7831      7837      7834      7833      7831      7837      7834
      7834      7838      7839      7840      7834      7838      7839      7841
      7834      7838      7839      7842      7835      7834      7838      7839
      7836      7834      7838      7839      7837      7834      7838      7839
      7838      7839      7842      7843      7838      7839      7842      7844
      7838      7839      7842      7850      7839      7842      7844      7845
      7839      7842      7850      7851      7839      7842      7850      7852
      7839      7842      7850      7853      7840      7839      7842      7843
      7840      7839      7842      7844      7840      7839      7842      7850
      7841      7839      7842      7843      7841      7839      7842      7844
      7841      7839      7842      7850      7842      7844      7845      7846
      7842      7844      7845      7847      7842      7850      7853      7854
      7843      7842      7844      7845      7843      7842      7850      7851
      7843      7842      7850      7852      7843      7842      7850      7853
      7844      7842      7850      7851      7844      7842      7850      7852
      7844      7842      7850      7853      7844      7845      7847      7848
      7844      7845      7847      7849      7844      7845      7847      7859
      7845      7844      7842      7850      7845      7847      7859      7860
      7845      7847      7859      7861      7845      7847      7859      7862
      7846      7845      7847      7848      7846      7845      7847      7849
      7846      7845      7847      7859      7847      7859      7862      7863
      7847      7859      7862      7864      7847      7859      7862      7865
      7848      7847      7859      7860      7848      7847      7859      7861
      7848      7847      7859      7862      7849      7847      7859      7860
      7849      7847      7859      7861      7849      7847      7859      7862
      7850      7853      7854      7855      7850      7853      7854      7856
      7851      7850      7853      7854      7852      7850      7853      7854
      7853      7854      7856      7857      7853      7854      7856      7858
      7853      7854      7856      7906      7854      7856      7906      7907
      7854      7856      7906      7908      7854      7856      7906      7909
      7855      7854      7856      7857      7855      7854      7856      7858
      7855      7854      7856      7906      7856      7906      7909      7910
      7856      7906      7909      7911      7856      7906      7909      7912
      7857      7856      7906      7907      7857      7856      7906      7908
      7857      7856      7906      7909      7858      7856      7906      7907
      7858      7856      7906      7908      7858      7856      7906      7909
      7859      7862      7865      7866      7859      7862      7865      7867
      7859      7862      7865      7868      7860      7859      7862      7863
      7860      7859      7862      7864      7860      7859      7862      7865
      7861      7859      7862      7863      7861      7859      7862      7864
      7861      7859      7862      7865      7862      7865      7868      7869
      7862      7865      7868      7870      7862      7865      7868      7871
      7863      7862      7865      7866      7863      7862      7865      7867
      7863      7862      7865      7868      7864      7862      7865      7866
      7864      7862      7865      7867      7864      7862      7865      7868
      7865      7868      7871      7872      7865      7868      7871      7873
      7865      7868      7871      7874      7866      7865      7868      7869
      7866      7865      7868      7870      7866      7865      7868      7871
      7867      7865      7868      7869      7867      7865      7868      7870
      7867      7865      7868      7871      7868      7871      7874      7875
      7868      7871      7874      7876      7868      7871      7874      7877
      7869      7868      7871      7872      7869      7868      7871      7873
      7869      7868      7871      7874      7870      7868      7871      7872
      7870      7868      7871      7873      7870      7868      7871      7874
      7871      7874      7877      7878      7871      7874      7877      7879
      7872      7871      7874      7875      7872      7871      7874      7876
      7872      7871      7874      7877      7873      7871      7874      7875
      7873      7871      7874      7876      7873      7871      7874      7877
      7874      7877      7879      7880      7874      7877      7879      7881
      7875      7874      7877      7878      7875      7874      7877      7879
      7876      7874      7877      7878      7876      7874      7877      7879
      7877      7879      7881      7882      7877      7879      7881      7883
      7877      7879      7881      7884      7878      7877      7879      7880
      7878      7877      7879      7881      7879      7881      7884      7885
      7879      7881      7884      7886      7879      7881      7884      7887
      7880      7879      7881      7882      7880      7879      7881      7883
      7880      7879      7881      7884      7881      7884      7887      7888
      7881      7884      7887      7889      7881      7884      7887      7890
      7882      7881      7884      7885      7882      7881      7884      7886
      7882      7881      7884      7887      7883      7881      7884      7885
      7883      7881      7884      7886      7883      7881      7884      7887
      7884      7887      7890      7891      7884      7887      7890      7892
      7884      7887      7890      7893      7885      7884      7887      7888
      7885      7884      7887      7889      7885      7884      7887      7890
      7886      7884      7887      7888      7886      7884      7887      7889
      7886      7884      7887      7890      7887      7890      7893      7894
      7887      7890      7893      7895      7887      7890      7893      7896
      7888      7887      7890      7891      7888      7887      7890      7892
      7888      7887      7890      7893      7889      7887      7890      7891
      7889      7887      7890      7892      7889      7887      7890      7893
      7890      7893      7896      7897      7890      7893      7896      7898
      7890      7893      7896      7899      7891      7890      7893      7894
      7891      7890      7893      7895      7891      7890      7893      7896
      7892      7890      7893      7894      7892      7890      7893      7895
      7892      7890      7893      7896      7893      7896      7899      7900
      7893      7896      7899      7901      7893      7896      7899      7902
      7894      7893      7896      7897      7894      7893      7896      7898
      7894      7893      7896      7899      7895      7893      7896      7897
      7895      7893      7896      7898      7895      7893      7896      7899
      7896      7899      7902      7903      7896      7899      7902      7904
      7896      7899      7902      7905      7897      7896      7899      7900
      7897      7896      7899      7901      7897      7896      7899      7902
      7898      7896      7899      7900      7898      7896      7899      7901
      7898      7896      7899      7902      7900      7899      7902      7903
      7900      7899      7902      7904      7900      7899      7902      7905
      7901      7899      7902      7903      7901      7899      7902      7904
      7901      7899      7902      7905      7906      7909      7912      7913
      7906      7909      7912      7914      7906      7909      7912      7915
      7907      7906      7909      7910      7907      7906      7909      7911
      7907      7906      7909      7912      7908      7906      7909      7910
      7908      7906      7909      7911      7908      7906      7909      7912
      7909      7912      7915      7916      7909      7912      7915      7917
      7909      7912      7915      7918      7910      7909      7912      7913
      7910      7909      7912      7914      7910      7909      7912      7915
      7911      7909      7912      7913      7911      7909      7912      7914
      7911      7909      7912      7915      7912      7915      7918      7919
      7912      7915      7918      7920      7912      7915      7918      7921
      7913      7912      7915      7916      7913      7912      7915      7917
      7913      7912      7915      7918      7914      7912      7915      7916
      7914      7912      7915      7917      7914      7912      7915      7918
      7915      7918      7921      7922      7915      7918      7921      7923
      7915      7918      7921      7924      7916      7915      7918      7919
      7916      7915      7918      7920      7916      7915      7918      7921
      7917      7915      7918      7919      7917      7915      7918      7920
      7917      7915      7918      7921      7918      7921      7924      7925
      7918      7921      7924      7926      7919      7918      7921      7922
      7919      7918      7921      7923      7919      7918      7921      7924
      7920      7918      7921      7922      7920      7918      7921      7923
      7920      7918      7921      7924      7921      7924      7926      7927
      7921      7924      7926      7928      7922      7921      7924      7925
      7922      7921      7924      7926      7923      7921      7924      7925
      7923      7921      7924      7926      7924      7926      7928      7929
      7924      7926      7928      7930      7924      7926      7928      7931
      7925      7924      7926      7927      7925      7924      7926      7928
      7926      7928      7931      7932      7926      7928      7931      7933
      7926      7928      7931      7934      7927      7926      7928      7929
      7927      7926      7928      7930      7927      7926      7928      7931
      7928      7931      7934      7935      7928      7931      7934      7936
      7928      7931      7934      7937      7929      7928      7931      7932
      7929      7928      7931      7933      7929      7928      7931      7934
      7930      7928      7931      7932      7930      7928      7931      7933
      7930      7928      7931      7934      7931      7934      7937      7938
      7931      7934      7937      7939      7931      7934      7937      7940
      7932      7931      7934      7935      7932      7931      7934      7936
      7932      7931      7934      7937      7933      7931      7934      7935
      7933      7931      7934      7936      7933      7931      7934      7937
      7934      7937      7940      7941      7934      7937      7940      7942
      7934      7937      7940      7943      7935      7934      7937      7938
      7935      7934      7937      7939      7935      7934      7937      7940
      7936      7934      7937      7938      7936      7934      7937      7939
      7936      7934      7937      7940      7937      7940      7943      7944
      7937      7940      7943      7945      7937      7940      7943      7946
      7938      7937      7940      7941      7938      7937      7940      7942
      7938      7937      7940      7943      7939      7937      7940      7941
      7939      7937      7940      7942      7939      7937      7940      7943
      7940      7943      7946      7947      7940      7943      7946      7948
      7940      7943      7946      7949      7941      7940      7943      7944
      7941      7940      7943      7945      7941      7940      7943      7946
      7942      7940      7943      7944      7942      7940      7943      7945
      7942      7940      7943      7946      7943      7946      7949      7950
      7943      7946      7949      7951      7943      7946      7949      7952
      7944      7943      7946      7947      7944      7943      7946      7948
      7944      7943      7946      7949      7945      7943      7946      7947
      7945      7943      7946      7948      7945      7943      7946      7949
      7947      7946      7949      7950      7947      7946      7949      7951
      7947      7946      7949      7952      7948      7946      7949      7950
      7948      7946      7949      7951      7948      7946      7949      7952
      7953      7954      7969      7970      7953      7954      7969      7971
      7953      7954      7969      7975      7954      7953      7957      7958
      7954      7953      7957      7959      7954      7953      7957      7960
      7954      7953      7961      7962      7954      7953      7961      7963
      7954      7953      7961      7964      7954      7953      7965      7966
      7954      7953      7965      7967      7954      7953      7965      7968
      7954      7969      7975      7972      7955      7954      7953      7957
      7955      7954      7953      7961      7955      7954      7953      7965
      7955      7954      7969      7970      7955      7954      7969      7971
      7955      7954      7969      7975      7956      7954      7953      7957
      7956      7954      7953      7961      7956      7954      7953      7965
      7956      7954      7969      7970      7956      7954      7969      7971
      7956      7954      7969      7975      7957      7953      7954      7969
      7957      7953      7961      7962      7957      7953      7961      7963
      7957      7953      7961      7964      7957      7953      7965      7966
      7957      7953      7965      7967      7957      7953      7965      7968
      7958      7957      7953      7961      7958      7957      7953      7965
      7959      7957      7953      7961      7959      7957      7953      7965
      7960      7957      7953      7961      7960      7957      7953      7965
      7961      7953      7954      7969      7961      7953      7965      7966
      7961      7953      7965      7967      7961      7953      7965      7968
      7962      7961      7953      7965      7963      7961      7953      7965
      7964      7961      7953      7965      7965      7953      7954      7969
      7969      7975      7972      7973      7969      7975      7972      7974
      7969      7975      7972      7976      7970      7969      7975      7972
      7971      7969      7975      7972      7972      7976      7977      7978
      7972      7976      7977      7979      7972      7976      7977      7980
      7973      7972      7976      7977      7974      7972      7976      7977
      7975      7972      7976      7977      7976      7977      7980      7981
      7976      7977      7980      7982      7976      7977      7980      7988
      7977      7980      7982      7983      7977      7980      7988      7989
      7977      7980      7988      7990      7977      7980      7988      7991
      7978      7977      7980      7981      7978      7977      7980      7982
      7978      7977      7980      7988      7979      7977      7980      7981
      7979      7977      7980      7982      7979      7977      7980      7988
      7980      7982      7983      7984      7980      7982      7983      7985
      7980      7988      7991      7992      7981      7980      7982      7983
      7981      7980      7988      7989      7981      7980      7988      7990
      7981      7980      7988      7991      7982      7980      7988      7989
      7982      7980      7988      7990      7982      7980      7988      7991
      7982      7983      7985      7986      7982      7983      7985      7987
      7982      7983      7985      7997      7983      7982      7980      7988
      7983      7985      7997      7998      7983      7985      7997      7999
      7983      7985      7997      8000      7984      7983      7985      7986
      7984      7983      7985      7987      7984      7983      7985      7997
      7985      7997      8000      8001      7985      7997      8000      8002
      7985      7997      8000      8003      7986      7985      7997      7998
      7986      7985      7997      7999      7986      7985      7997      8000
      7987      7985      7997      7998      7987      7985      7997      7999
      7987      7985      7997      8000      7988      7991      7992      7993
      7988      7991      7992      7994      7989      7988      7991      7992
      7990      7988      7991      7992      7991      7992      7994      7995
      7991      7992      7994      7996      7991      7992      7994      8044
      7992      7994      8044      8045      7992      7994      8044      8046
      7992      7994      8044      8047      7993      7992      7994      7995
      7993      7992      7994      7996      7993      7992      7994      8044
      7994      8044      8047      8048      7994      8044      8047      8049
      7994      8044      8047      8050      7995      7994      8044      8045
      7995      7994      8044      8046      7995      7994      8044      8047
      7996      7994      8044      8045      7996      7994      8044      8046
      7996      7994      8044      8047      7997      8000      8003      8004
      7997      8000      8003      8005      7997      8000      8003      8006
      7998      7997      8000      8001      7998      7997      8000      8002
      7998      7997      8000      8003      7999      7997      8000      8001
      7999      7997      8000      8002      7999      7997      8000      8003
      8000      8003      8006      8007      8000      8003      8006      8008
      8000      8003      8006      8009      8001      8000      8003      8004
      8001      8000      8003      8005      8001      8000      8003      8006
      8002      8000      8003      8004      8002      8000      8003      8005
      8002      8000      8003      8006      8003      8006      8009      8010
      8003      8006      8009      8011      8003      8006      8009      8012
      8004      8003      8006      8007      8004      8003      8006      8008
      8004      8003      8006      8009      8005      8003      8006      8007
      8005      8003      8006      8008      8005      8003      8006      8009
      8006      8009      8012      8013      8006      8009      8012      8014
      8006      8009      8012      8015      8007      8006      8009      8010
      8007      8006      8009      8011      8007      8006      8009      8012
      8008      8006      8009      8010      8008      8006      8009      8011
      8008      8006      8009      8012      8009      8012      8015      8016
      8009      8012      8015      8017      8010      8009      8012      8013
      8010      8009      8012      8014      8010      8009      8012      8015
      8011      8009      8012      8013      8011      8009      8012      8014
      8011      8009      8012      8015      8012      8015      8017      8018
      8012      8015      8017      8019      8013      8012      8015      8016
      8013      8012      8015      8017      8014      8012      8015      8016
      8014      8012      8015      8017      8015      8017      8019      8020
      8015      8017      8019      8021      8015      8017      8019      8022
      8016      8015      8017      8018      8016      8015      8017      8019
      8017      8019      8022      8023      8017      8019      8022      8024
      8017      8019      8022      8025      8018      8017      8019      8020
      8018      8017      8019      8021      8018      8017      8019      8022
      8019      8022      8025      8026      8019      8022      8025      8027
      8019      8022      8025      8028      8020      8019      8022      8023
      8020      8019      8022      8024      8020      8019      8022      8025
      8021      8019      8022      8023      8021      8019      8022      8024
      8021      8019      8022      8025      8022      8025      8028      8029
      8022      8025      8028      8030      8022      8025      8028      8031
      8023      8022      8025      8026      8023      8022      8025      8027
      8023      8022      8025      8028      8024      8022      8025      8026
      8024      8022      8025      8027      8024      8022      8025      8028
      8025      8028      8031      8032      8025      8028      8031      8033
      8025      8028      8031      8034      8026      8025      8028      8029
      8026      8025      8028      8030      8026      8025      8028      8031
      8027      8025      8028      8029      8027      8025      8028      8030
      8027      8025      8028      8031      8028      8031      8034      8035
      8028      8031      8034      8036      8028      8031      8034      8037
      8029      8028      8031      8032      8029      8028      8031      8033
      8029      8028      8031      8034      8030      8028      8031      8032
      8030      8028      8031      8033      8030      8028      8031      8034
      8031      8034      8037      8038      8031      8034      8037      8039
      8031      8034      8037      8040      8032      8031      8034      8035
      8032      8031      8034      8036      8032      8031      8034      8037
      8033      8031      8034      8035      8033      8031      8034      8036
      8033      8031      8034      8037      8034      8037      8040      8041
      8034      8037      8040      8042      8034      8037      8040      8043
      8035      8034      8037      8038      8035      8034      8037      8039
      8035      8034      8037      8040      8036      8034      8037      8038
      8036      8034      8037      8039      8036      8034      8037      8040
      8038      8037      8040      8041      8038      8037      8040      8042
      8038      8037      8040      8043      8039      8037      8040      8041
      8039      8037      8040      8042      8039      8037      8040      8043
      8044      8047      8050      8051      8044      8047      8050      8052
      8044      8047      8050      8053      8045      8044      8047      8048
      8045      8044      8047      8049      8045      8044      8047      8050
      8046      8044      8047      8048      8046      8044      8047      8049
      8046      8044      8047      8050      8047      8050      8053      8054
      8047      8050      8053      8055      8047      8050      8053      8056
      8048      8047      8050      8051      8048      8047      8050      8052
      8048      8047      8050      8053      8049      8047      8050      8051
      8049      8047      8050      8052      8049      8047      8050      8053
      8050      8053      8056      8057      8050      8053      8056      8058
      8050      8053      8056      8059      8051      8050      8053      8054
      8051      8050      8053      8055      8051      8050      8053      8056
      8052      8050      8053      8054      8052      8050      8053      8055
      8052      8050      8053      8056      8053      8056      8059      8060
      8053      8056      8059      8061      8053      8056      8059      8062
      8054      8053      8056      8057      8054      8053      8056      8058
      8054      8053      8056      8059      8055      8053      8056      8057
      8055      8053      8056      8058      8055      8053      8056      8059
      8056      8059      8062      8063      8056      8059      8062      8064
      8057      8056      8059      8060      8057      8056      8059      8061
      8057      8056      8059      8062      8058      8056      8059      8060
      8058      8056      8059      8061      8058      8056      8059      8062
      8059      8062      8064      8065      8059      8062      8064      8066
      8060      8059      8062      8063      8060      8059      8062      8064
      8061      8059      8062      8063      8061      8059      8062      8064
      8062      8064      8066      8067      8062      8064      8066      8068
      8062      8064      8066      8069      8063      8062      8064      8065
      8063      8062      8064      8066      8064      8066      8069      8070
      8064      8066      8069      8071      8064      8066      8069      8072
      8065      8064      8066      8067      8065      8064      8066      8068
      8065      8064      8066      8069      8066      8069      8072      8073
      8066      8069      8072      8074      8066      8069      8072      8075
      8067      8066      8069      8070      8067      8066      8069      8071
      8067      8066      8069      8072      8068      8066      8069      8070
      8068      8066      8069      8071      8068      8066      8069      8072
      8069      8072      8075      8076      8069      8072      8075      8077
      8069      8072      8075      8078      8070      8069      8072      8073
      8070      8069      8072      8074      8070      8069      8072      8075
      8071      8069      8072      8073      8071      8069      8072      8074
      8071      8069      8072      8075      8072      8075      8078      8079
      8072      8075      8078      8080      8072      8075      8078      8081
      8073      8072      8075      8076      8073      8072      8075      8077
      8073      8072      8075      8078      8074      8072      8075      8076
      8074      8072      8075      8077      8074      8072      8075      8078
      8075      8078      8081      8082      8075      8078      8081      8083
      8075      8078      8081      8084      8076      8075      8078      8079
      8076      8075      8078      8080      8076      8075      8078      8081
      8077      8075      8078      8079      8077      8075      8078      8080
      8077      8075      8078      8081      8078      8081      8084      8085
      8078      8081      8084      8086      8078      8081      8084      8087
      8079      8078      8081      8082      8079      8078      8081      8083
      8079      8078      8081      8084      8080      8078      8081      8082
      8080      8078      8081      8083      8080      8078      8081      8084
      8081      8084      8087      8088      8081      8084      8087      8089
      8081      8084      8087      8090      8082      8081      8084      8085
      8082      8081      8084      8086      8082      8081      8084      8087
      8083      8081      8084      8085      8083      8081      8084      8086
      8083      8081      8084      8087      8085      8084      8087      8088
      8085      8084      8087      8089      8085      8084      8087      8090
      8086      8084      8087      8088      8086      8084      8087      8089
      8086      8084      8087      8090      8091      8092      8107      8108
      8091      8092      8107      8109      8091      8092      8107      8113
      8092      8091      8095      8096      8092      8091      8095      8097
      8092      8091      8095      8098      8092      8091      8099      8100
      8092      8091      8099      8101      8092      8091      8099      8102
      8092      8091      8103      8104      8092      8091      8103      8105
      8092      8091      8103      8106      8092      8107      8113      8110
      8093      8092      8091      8095      8093      8092      8091      8099
      8093      8092      8091      8103      8093      8092      8107      8108
      8093      8092      8107      8109      8093      8092      8107      8113
      8094      8092      8091      8095      8094      8092      8091      8099
      8094      8092      8091      8103      8094      8092      8107      8108
      8094      8092      8107      8109      8094      8092      8107      8113
      8095      8091      8092      8107      8095      8091      8099      8100
      8095      8091      8099      8101      8095      8091      8099      8102
      8095      8091      8103      8104      8095      8091      8103      8105
      8095      8091      8103      8106      8096      8095      8091      8099
      8096      8095      8091      8103      8097      8095      8091      8099
      8097      8095      8091      8103      8098      8095      8091      8099
      8098      8095      8091      8103      8099      8091      8092      8107
      8099      8091      8103      8104      8099      8091      8103      8105
      8099      8091      8103      8106      8100      8099      8091      8103
      8101      8099      8091      8103      8102      8099      8091      8103
      8103      8091      8092      8107      8107      8113      8110      8111
      8107      8113      8110      8112      8107      8113      8110      8114
      8108      8107      8113      8110      8109      8107      8113      8110
      8110      8114      8115      8116      8110      8114      8115      8117
      8110      8114      8115      8118      8111      8110      8114      8115
      8112      8110      8114      8115      8113      8110      8114      8115
      8114      8115      8118      8119      8114      8115      8118      8120
      8114      8115      8118      8126      8115      8118      8120      8121
      8115      8118      8126      8127      8115      8118      8126      8128
      8115      8118      8126      8129      8116      8115      8118      8119
      8116      8115      8118      8120      8116      8115      8118      8126
      8117      8115      8118      8119      8117      8115      8118      8120
      8117      8115      8118      8126      8118      8120      8121      8122
      8118      8120      8121      8123      8118      8126      8129      8130
      8119      8118      8120      8121      8119      8118      8126      8127
      8119      8118      8126      8128      8119      8118      8126      8129
      8120      8118      8126      8127      8120      8118      8126      8128
      8120      8118      8126      8129      8120      8121      8123      8124
      8120      8121      8123      8125      8120      8121      8123      8135
      8121      8120      8118      8126      8121      8123      8135      8136
      8121      8123      8135      8137      8121      8123      8135      8138
      8122      8121      8123      8124      8122      8121      8123      8125
      8122      8121      8123      8135      8123      8135      8138      8139
      8123      8135      8138      8140      8123      8135      8138      8141
      8124      8123      8135      8136      8124      8123      8135      8137
      8124      8123      8135      8138      8125      8123      8135      8136
      8125      8123      8135      8137      8125      8123      8135      8138
      8126      8129      8130      8131      8126      8129      8130      8132
      8127      8126      8129      8130      8128      8126      8129      8130
      8129      8130      8132      8133      8129      8130      8132      8134
      8129      8130      8132      8182      8130      8132      8182      8183
      8130      8132      8182      8184      8130      8132      8182      8185
      8131      8130      8132      8133      8131      8130      8132      8134
      8131      8130      8132      8182      8132      8182      8185      8186
      8132      8182      8185      8187      8132      8182      8185      8188
      8133      8132      8182      8183      8133      8132      8182      8184
      8133      8132      8182      8185      8134      8132      8182      8183
      8134      8132      8182      8184      8134      8132      8182      8185
      8135      8138      8141      8142      8135      8138      8141      8143
      8135      8138      8141      8144      8136      8135      8138      8139
      8136      8135      8138      8140      8136      8135      8138      8141
      8137      8135      8138      8139      8137      8135      8138      8140
      8137      8135      8138      8141      8138      8141      8144      8145
      8138      8141      8144      8146      8138      8141      8144      8147
      8139      8138      8141      8142      8139      8138      8141      8143
      8139      8138      8141      8144      8140      8138      8141      8142
      8140      8138      8141      8143      8140      8138      8141      8144
      8141      8144      8147      8148      8141      8144      8147      8149
      8141      8144      8147      8150      8142      8141      8144      8145
      8142      8141      8144      8146      8142      8141      8144      8147
      8143      8141      8144      8145      8143      8141      8144      8146
      8143      8141      8144      8147      8144      8147      8150      8151
      8144      8147      8150      8152      8144      8147      8150      8153
      8145      8144      8147      8148      8145      8144      8147      8149
      8145      8144      8147      8150      8146      8144      8147      8148
      8146      8144      8147      8149      8146      8144      8147      8150
      8147      8150      8153      8154      8147      8150      8153      8155
      8148      8147      8150      8151      8148      8147      8150      8152
      8148      8147      8150      8153      8149      8147      8150      8151
      8149      8147      8150      8152      8149      8147      8150      8153
      8150      8153      8155      8156      8150      8153      8155      8157
      8151      8150      8153      8154      8151      8150      8153      8155
      8152      8150      8153      8154      8152      8150      8153      8155
      8153      8155      8157      8158      8153      8155      8157      8159
      8153      8155      8157      8160      8154      8153      8155      8156
      8154      8153      8155      8157      8155      8157      8160      8161
      8155      8157      8160      8162      8155      8157      8160      8163
      8156      8155      8157      8158      8156      8155      8157      8159
      8156      8155      8157      8160      8157      8160      8163      8164
      8157      8160      8163      8165      8157      8160      8163      8166
      8158      8157      8160      8161      8158      8157      8160      8162
      8158      8157      8160      8163      8159      8157      8160      8161
      8159      8157      8160      8162      8159      8157      8160      8163
      8160      8163      8166      8167      8160      8163      8166      8168
      8160      8163      8166      8169      8161      8160      8163      8164
      8161      8160      8163      8165      8161      8160      8163      8166
      8162      8160      8163      8164      8162      8160      8163      8165
      8162      8160      8163      8166      8163      8166      8169      8170
      8163      8166      8169      8171      8163      8166      8169      8172
      8164      8163      8166      8167      8164      8163      8166      8168
      8164      8163      8166      8169      8165      8163      8166      8167
      8165      8163      8166      8168      8165      8163      8166      8169
      8166      8169      8172      8173      8166      8169      8172      8174
      8166      8169      8172      8175      8167      8166      8169      8170
      8167      8166      8169      8171      8167      8166      8169      8172
      8168      8166      8169      8170      8168      8166      8169      8171
      8168      8166      8169      8172      8169      8172      8175      8176
      8169      8172      8175      8177      8169      8172      8175      8178
      8170      8169      8172      8173      8170      8169      8172      8174
      8170      8169      8172      8175      8171      8169      8172      8173
      8171      8169      8172      8174      8171      8169      8172      8175
      8172      8175      8178      8179      8172      8175      8178      8180
      8172      8175      8178      8181      8173      8172      8175      8176
      8173      8172      8175      8177      8173      8172      8175      8178
      8174      8172      8175      8176      8174      8172      8175      8177
      8174      8172      8175      8178      8176      8175      8178      8179
      8176      8175      8178      8180      8176      8175      8178      8181
      8177      8175      8178      8179      8177      8175      8178      8180
      8177      8175      8178      8181      8182      8185      8188      8189
      8182      8185      8188      8190      8182      8185      8188      8191
      8183      8182      8185      8186      8183      8182      8185      8187
      8183      8182      8185      8188      8184      8182      8185      8186
      8184      8182      8185      8187      8184      8182      8185      8188
      8185      8188      8191      8192      8185      8188      8191      8193
      8185      8188      8191      8194      8186      8185      8188      8189
      8186      8185      8188      8190      8186      8185      8188      8191
      8187      8185      8188      8189      8187      8185      8188      8190
      8187      8185      8188      8191      8188      8191      8194      8195
      8188      8191      8194      8196      8188      8191      8194      8197
      8189      8188      8191      8192      8189      8188      8191      8193
      8189      8188      8191      8194      8190      8188      8191      8192
      8190      8188      8191      8193      8190      8188      8191      8194
      8191      8194      8197      8198      8191      8194      8197      8199
      8191      8194      8197      8200      8192      8191      8194      8195
      8192      8191      8194      8196      8192      8191      8194      8197
      8193      8191      8194      8195      8193      8191      8194      8196
      8193      8191      8194      8197      8194      8197      8200      8201
      8194      8197      8200      8202      8195      8194      8197      8198
      8195      8194      8197      8199      8195      8194      8197      8200
      8196      8194      8197      8198      8196      8194      8197      8199
      8196      8194      8197      8200      8197      8200      8202      8203
      8197      8200      8202      8204      8198      8197      8200      8201
      8198      8197      8200      8202      8199      8197      8200      8201
      8199      8197      8200      8202      8200      8202      8204      8205
      8200      8202      8204      8206      8200      8202      8204      8207
      8201      8200      8202      8203      8201      8200      8202      8204
      8202      8204      8207      8208      8202      8204      8207      8209
      8202      8204      8207      8210      8203      8202      8204      8205
      8203      8202      8204      8206      8203      8202      8204      8207
      8204      8207      8210      8211      8204      8207      8210      8212
      8204      8207      8210      8213      8205      8204      8207      8208
      8205      8204      8207      8209      8205      8204      8207      8210
      8206      8204      8207      8208      8206      8204      8207      8209
      8206      8204      8207      8210      8207      8210      8213      8214
      8207      8210      8213      8215      8207      8210      8213      8216
      8208      8207      8210      8211      8208      8207      8210      8212
      8208      8207      8210      8213      8209      8207      8210      8211
      8209      8207      8210      8212      8209      8207      8210      8213
      8210      8213      8216      8217      8210      8213      8216      8218
      8210      8213      8216      8219      8211      8210      8213      8214
      8211      8210      8213      8215      8211      8210      8213      8216
      8212      8210      8213      8214      8212      8210      8213      8215
      8212      8210      8213      8216      8213      8216      8219      8220
      8213      8216      8219      8221      8213      8216      8219      8222
      8214      8213      8216      8217      8214      8213      8216      8218
      8214      8213      8216      8219      8215      8213      8216      8217
      8215      8213      8216      8218      8215      8213      8216      8219
      8216      8219      8222      8223      8216      8219      8222      8224
      8216      8219      8222      8225      8217      8216      8219      8220
      8217      8216      8219      8221      8217      8216      8219      8222
      8218      8216      8219      8220      8218      8216      8219      8221
      8218      8216      8219      8222      8219      8222      8225      8226
      8219      8222      8225      8227      8219      8222      8225      8228
      8220      8219      8222      8223      8220      8219      8222      8224
      8220      8219      8222      8225      8221      8219      8222      8223
      8221      8219      8222      8224      8221      8219      8222      8225
      8223      8222      8225      8226      8223      8222      8225      8227
      8223      8222      8225      8228      8224      8222      8225      8226
      8224      8222      8225      8227      8224      8222      8225      8228
      8229      8230      8245      8246      8229      8230      8245      8247
      8229      8230      8245      8251      8230      8229      8233      8234
      8230      8229      8233      8235      8230      8229      8233      8236
      8230      8229      8237      8238      8230      8229      8237      8239
      8230      8229      8237      8240      8230      8229      8241      8242
      8230      8229      8241      8243      8230      8229      8241      8244
      8230      8245      8251      8248      8231      8230      8229      8233
      8231      8230      8229      8237      8231      8230      8229      8241
      8231      8230      8245      8246      8231      8230      8245      8247
      8231      8230      8245      8251      8232      8230      8229      8233
      8232      8230      8229      8237      8232      8230      8229      8241
      8232      8230      8245      8246      8232      8230      8245      8247
      8232      8230      8245      8251      8233      8229      8230      8245
      8233      8229      8237      8238      8233      8229      8237      8239
      8233      8229      8237      8240      8233      8229      8241      8242
      8233      8229      8241      8243      8233      8229      8241      8244
      8234      8233      8229      8237      8234      8233      8229      8241
      8235      8233      8229      8237      8235      8233      8229      8241
      8236      8233      8229      8237      8236      8233      8229      8241
      8237      8229      8230      8245      8237      8229      8241      8242
      8237      8229      8241      8243      8237      8229      8241      8244
      8238      8237      8229      8241      8239      8237      8229      8241
      8240      8237      8229      8241      8241      8229      8230      8245
      8245      8251      8248      8249      8245      8251      8248      8250
      8245      8251      8248      8252      8246      8245      8251      8248
      8247      8245      8251      8248      8248      8252      8253      8254
      8248      8252      8253      8255      8248      8252      8253      8256
      8249      8248      8252      8253      8250      8248      8252      8253
      8251      8248      8252      8253      8252      8253      8256      8257
      8252      8253      8256      8258      8252      8253      8256      8264
      8253      8256      8258      8259      8253      8256      8264      8265
      8253      8256      8264      8266      8253      8256      8264      8267
      8254      8253      8256      8257      8254      8253      8256      8258
      8254      8253      8256      8264      8255      8253      8256      8257
      8255      8253      8256      8258      8255      8253      8256      8264
      8256      8258      8259      8260      8256      8258      8259      8261
      8256      8264      8267      8268      8257      8256      8258      8259
      8257      8256      8264      8265      8257      8256      8264      8266
      8257      8256      8264      8267      8258      8256      8264      8265
      8258      8256      8264      8266      8258      8256      8264      8267
      8258      8259      8261      8262      8258      8259      8261      8263
      8258      8259      8261      8273      8259      8258      8256      8264
      8259      8261      8273      8274      8259      8261      8273      8275
      8259      8261      8273      8276      8260      8259      8261      8262
      8260      8259      8261      8263      8260      8259      8261      8273
      8261      8273      8276      8277      8261      8273      8276      8278
      8261      8273      8276      8279      8262      8261      8273      8274
      8262      8261      8273      8275      8262      8261      8273      8276
      8263      8261      8273      8274      8263      8261      8273      8275
      8263      8261      8273      8276      8264      8267      8268      8269
      8264      8267      8268      8270      8265      8264      8267      8268
      8266      8264      8267      8268      8267      8268      8270      8271
      8267      8268      8270      8272      8267      8268      8270      8320
      8268      8270      8320      8321      8268      8270      8320      8322
      8268      8270      8320      8323      8269      8268      8270      8271
      8269      8268      8270      8272      8269      8268      8270      8320
      8270      8320      8323      8324      8270      8320      8323      8325
      8270      8320      8323      8326      8271      8270      8320      8321
      8271      8270      8320      8322      8271      8270      8320      8323
      8272      8270      8320      8321      8272      8270      8320      8322
      8272      8270      8320      8323      8273      8276      8279      8280
      8273      8276      8279      8281      8273      8276      8279      8282
      8274      8273      8276      8277      8274      8273      8276      8278
      8274      8273      8276      8279      8275      8273      8276      8277
      8275      8273      8276      8278      8275      8273      8276      8279
      8276      8279      8282      8283      8276      8279      8282      8284
      8276      8279      8282      8285      8277      8276      8279      8280
      8277      8276      8279      8281      8277      8276      8279      8282
      8278      8276      8279      8280      8278      8276      8279      8281
      8278      8276      8279      8282      8279      8282      8285      8286
      8279      8282      8285      8287      8279      8282      8285      8288
      8280      8279      8282      8283      8280      8279      8282      8284
      8280      8279      8282      8285      8281      8279      8282      8283
      8281      8279      8282      8284      8281      8279      8282      8285
      8282      8285      8288      8289      8282      8285      8288      8290
      8282      8285      8288      8291      8283      8282      8285      8286
      8283      8282      8285      8287      8283      8282      8285      8288
      8284      8282      8285      8286      8284      8282      8285      8287
      8284      8282      8285      8288      8285      8288      8291      8292
      8285      8288      8291      8293      8286      8285      8288      8289
      8286      8285      8288      8290      8286      8285      8288      8291
      8287      8285      8288      8289      8287      8285      8288      8290
      8287      8285      8288      8291      8288      8291      8293      8294
      8288      8291      8293      8295      8289      8288      8291      8292
      8289      8288      8291      8293      8290      8288      8291      8292
      8290      8288      8291      8293      8291      8293      8295      8296
      8291      8293      8295      8297      8291      8293      8295      8298
      8292      8291      8293      8294      8292      8291      8293      8295
      8293      8295      8298      8299      8293      8295      8298      8300
      8293      8295      8298      8301      8294      8293      8295      8296
      8294      8293      8295      8297      8294      8293      8295      8298
      8295      8298      8301      8302      8295      8298      8301      8303
      8295      8298      8301      8304      8296      8295      8298      8299
      8296      8295      8298      8300      8296      8295      8298      8301
      8297      8295      8298      8299      8297      8295      8298      8300
      8297      8295      8298      8301      8298      8301      8304      8305
      8298      8301      8304      8306      8298      8301      8304      8307
      8299      8298      8301      8302      8299      8298      8301      8303
      8299      8298      8301      8304      8300      8298      8301      8302
      8300      8298      8301      8303      8300      8298      8301      8304
      8301      8304      8307      8308      8301      8304      8307      8309
      8301      8304      8307      8310      8302      8301      8304      8305
      8302      8301      8304      8306      8302      8301      8304      8307
      8303      8301      8304      8305      8303      8301      8304      8306
      8303      8301      8304      8307      8304      8307      8310      8311
      8304      8307      8310      8312      8304      8307      8310      8313
      8305      8304      8307      8308      8305      8304      8307      8309
      8305      8304      8307      8310      8306      8304      8307      8308
      8306      8304      8307      8309      8306      8304      8307      8310
      8307      8310      8313      8314      8307      8310      8313      8315
      8307      8310      8313      8316      8308      8307      8310      8311
      8308      8307      8310      8312      8308      8307      8310      8313
      8309      8307      8310      8311      8309      8307      8310      8312
      8309      8307      8310      8313      8310      8313      8316      8317
      8310      8313      8316      8318      8310      8313      8316      8319
      8311      8310      8313      8314      8311      8310      8313      8315
      8311      8310      8313      8316      8312      8310      8313      8314
      8312      8310      8313      8315      8312      8310      8313      8316
      8314      8313      8316      8317      8314      8313      8316      8318
      8314      8313      8316      8319      8315      8313      8316      8317
      8315      8313      8316      8318      8315      8313      8316      8319
      8320      8323      8326      8327      8320      8323      8326      8328
      8320      8323      8326      8329      8321      8320      8323      8324
      8321      8320      8323      8325      8321      8320      8323      8326
      8322      8320      8323      8324      8322      8320      8323      8325
      8322      8320      8323      8326      8323      8326      8329      8330
      8323      8326      8329      8331      8323      8326      8329      8332
      8324      8323      8326      8327      8324      8323      8326      8328
      8324      8323      8326      8329      8325      8323      8326      8327
      8325      8323      8326      8328      8325      8323      8326      8329
      8326      8329      8332      8333      8326      8329      8332      8334
      8326      8329      8332      8335      8327      8326      8329      8330
      8327      8326      8329      8331      8327      8326      8329      8332
      8328      8326      8329      8330      8328      8326      8329      8331
      8328      8326      8329      8332      8329      8332      8335      8336
      8329      8332      8335      8337      8329      8332      8335      8338
      8330      8329      8332      8333      8330      8329      8332      8334
      8330      8329      8332      8335      8331      8329      8332      8333
      8331      8329      8332      8334      8331      8329      8332      8335
      8332      8335      8338      8339      8332      8335      8338      8340
      8333      8332      8335      8336      8333      8332      8335      8337
      8333      8332      8335      8338      8334      8332      8335      8336
      8334      8332      8335      8337      8334      8332      8335      8338
      8335      8338      8340      8341      8335      8338      8340      8342
      8336      8335      8338      8339      8336      8335      8338      8340
      8337      8335      8338      8339      8337      8335      8338      8340
      8338      8340      8342      8343      8338      8340      8342      8344
      8338      8340      8342      8345      8339      8338      8340      8341
      8339      8338      8340      8342      8340      8342      8345      8346
      8340      8342      8345      8347      8340      8342      8345      8348
      8341      8340      8342      8343      8341      8340      8342      8344
      8341      8340      8342      8345      8342      8345      8348      8349
      8342      8345      8348      8350      8342      8345      8348      8351
      8343      8342      8345      8346      8343      8342      8345      8347
      8343      8342      8345      8348      8344      8342      8345      8346
      8344      8342      8345      8347      8344      8342      8345      8348
      8345      8348      8351      8352      8345      8348      8351      8353
      8345      8348      8351      8354      8346      8345      8348      8349
      8346      8345      8348      8350      8346      8345      8348      8351
      8347      8345      8348      8349      8347      8345      8348      8350
      8347      8345      8348      8351      8348      8351      8354      8355
      8348      8351      8354      8356      8348      8351      8354      8357
      8349      8348      8351      8352      8349      8348      8351      8353
      8349      8348      8351      8354      8350      8348      8351      8352
      8350      8348      8351      8353      8350      8348      8351      8354
      8351      8354      8357      8358      8351      8354      8357      8359
      8351      8354      8357      8360      8352      8351      8354      8355
      8352      8351      8354      8356      8352      8351      8354      8357
      8353      8351      8354      8355      8353      8351      8354      8356
      8353      8351      8354      8357      8354      8357      8360      8361
      8354      8357      8360      8362      8354      8357      8360      8363
      8355      8354      8357      8358      8355      8354      8357      8359
      8355      8354      8357      8360      8356      8354      8357      8358
      8356      8354      8357      8359      8356      8354      8357      8360
      8357      8360      8363      8364      8357      8360      8363      8365
      8357      8360      8363      8366      8358      8357      8360      8361
      8358      8357      8360      8362      8358      8357      8360      8363
      8359      8357      8360      8361      8359      8357      8360      8362
      8359      8357      8360      8363      8361      8360      8363      8364
      8361      8360      8363      8365      8361      8360      8363      8366
      8362      8360      8363      8364      8362      8360      8363      8365
      8362      8360      8363      8366      8367      8368      8383      8384
      8367      8368      8383      8385      8367      8368      8383      8389
      8368      8367      8371      8372      8368      8367      8371      8373
      8368      8367      8371      8374      8368      8367      8375      8376
      8368      8367      8375      8377      8368      8367      8375      8378
      8368      8367      8379      8380      8368      8367      8379      8381
      8368      8367      8379      8382      8368      8383      8389      8386
      8369      8368      8367      8371      8369      8368      8367      8375
      8369      8368      8367      8379      8369      8368      8383      8384
      8369      8368      8383      8385      8369      8368      8383      8389
      8370      8368      8367      8371      8370      8368      8367      8375
      8370      8368      8367      8379      8370      8368      8383      8384
      8370      8368      8383      8385      8370      8368      8383      8389
      8371      8367      8368      8383      8371      8367      8375      8376
      8371      8367      8375      8377      8371      8367      8375      8378
      8371      8367      8379      8380      8371      8367      8379      8381
      8371      8367      8379      8382      8372      8371      8367      8375
      8372      8371      8367      8379      8373      8371      8367      8375
      8373      8371      8367      8379      8374      8371      8367      8375
      8374      8371      8367      8379      8375      8367      8368      8383
      8375      8367      8379      8380      8375      8367      8379      8381
      8375      8367      8379      8382      8376      8375      8367      8379
      8377      8375      8367      8379      8378      8375      8367      8379
      8379      8367      8368      8383      8383      8389      8386      8387
      8383      8389      8386      8388      8383      8389      8386      8390
      8384      8383      8389      8386      8385      8383      8389      8386
      8386      8390      8391      8392      8386      8390      8391      8393
      8386      8390      8391      8394      8387      8386      8390      8391
      8388      8386      8390      8391      8389      8386      8390      8391
      8390      8391      8394      8395      8390      8391      8394      8396
      8390      8391      8394      8402      8391      8394      8396      8397
      8391      8394      8402      8403      8391      8394      8402      8404
      8391      8394      8402      8405      8392      8391      8394      8395
      8392      8391      8394      8396      8392      8391      8394      8402
      8393      8391      8394      8395      8393      8391      8394      8396
      8393      8391      8394      8402      8394      8396      8397      8398
      8394      8396      8397      8399      8394      8402      8405      8406
      8395      8394      8396      8397      8395      8394      8402      8403
      8395      8394      8402      8404      8395      8394      8402      8405
      8396      8394      8402      8403      8396      8394      8402      8404
      8396      8394      8402      8405      8396      8397      8399      8400
      8396      8397      8399      8401      8396      8397      8399      8411
      8397      8396      8394      8402      8397      8399      8411      8412
      8397      8399      8411      8413      8397      8399      8411      8414
      8398      8397      8399      8400      8398      8397      8399      8401
      8398      8397      8399      8411      8399      8411      8414      8415
      8399      8411      8414      8416      8399      8411      8414      8417
      8400      8399      8411      8412      8400      8399      8411      8413
      8400      8399      8411      8414      8401      8399      8411      8412
      8401      8399      8411      8413      8401      8399      8411      8414
      8402      8405      8406      8407      8402      8405      8406      8408
      8403      8402      8405      8406      8404      8402      8405      8406
      8405      8406      8408      8409      8405      8406      8408      8410
      8405      8406      8408      8458      8406      8408      8458      8459
      8406      8408      8458      8460      8406      8408      8458      8461
      8407      8406      8408      8409      8407      8406      8408      8410
      8407      8406      8408      8458      8408      8458      8461      8462
      8408      8458      8461      8463      8408      8458      8461      8464
      8409      8408      8458      8459      8409      8408      8458      8460
      8409      8408      8458      8461      8410      8408      8458      8459
      8410      8408      8458      8460      8410      8408      8458      8461
      8411      8414      8417      8418      8411      8414      8417      8419
      8411      8414      8417      8420      8412      8411      8414      8415
      8412      8411      8414      8416      8412      8411      8414      8417
      8413      8411      8414      8415      8413      8411      8414      8416
      8413      8411      8414      8417      8414      8417      8420      8421
      8414      8417      8420      8422      8414      8417      8420      8423
      8415      8414      8417      8418      8415      8414      8417      8419
      8415      8414      8417      8420      8416      8414      8417      8418
      8416      8414      8417      8419      8416      8414      8417      8420
      8417      8420      8423      8424      8417      8420      8423      8425
      8417      8420      8423      8426      8418      8417      8420      8421
      8418      8417      8420      8422      8418      8417      8420      8423
      8419      8417      8420      8421      8419      8417      8420      8422
      8419      8417      8420      8423      8420      8423      8426      8427
      8420      8423      8426      8428      8420      8423      8426      8429
      8421      8420      8423      8424      8421      8420      8423      8425
      8421      8420      8423      8426      8422      8420      8423      8424
      8422      8420      8423      8425      8422      8420      8423      8426
      8423      8426      8429      8430      8423      8426      8429      8431
      8424      8423      8426      8427      8424      8423      8426      8428
      8424      8423      8426      8429      8425      8423      8426      8427
      8425      8423      8426      8428      8425      8423      8426      8429
      8426      8429      8431      8432      8426      8429      8431      8433
      8427      8426      8429      8430      8427      8426      8429      8431
      8428      8426      8429      8430      8428      8426      8429      8431
      8429      8431      8433      8434      8429      8431      8433      8435
      8429      8431      8433      8436      8430      8429      8431      8432
      8430      8429      8431      8433      8431      8433      8436      8437
      8431      8433      8436      8438      8431      8433      8436      8439
      8432      8431      8433      8434      8432      8431      8433      8435
      8432      8431      8433      8436      8433      8436      8439      8440
      8433      8436      8439      8441      8433      8436      8439      8442
      8434      8433      8436      8437      8434      8433      8436      8438
      8434      8433      8436      8439      8435      8433      8436      8437
      8435      8433      8436      8438      8435      8433      8436      8439
      8436      8439      8442      8443      8436      8439      8442      8444
      8436      8439      8442      8445      8437      8436      8439      8440
      8437      8436      8439      8441      8437      8436      8439      8442
      8438      8436      8439      8440      8438      8436      8439      8441
      8438      8436      8439      8442      8439      8442      8445      8446
      8439      8442      8445      8447      8439      8442      8445      8448
      8440      8439      8442      8443      8440      8439      8442      8444
      8440      8439      8442      8445      8441      8439      8442      8443
      8441      8439      8442      8444      8441      8439      8442      8445
      8442      8445      8448      8449      8442      8445      8448      8450
      8442      8445      8448      8451      8443      8442      8445      8446
      8443      8442      8445      8447      8443      8442      8445      8448
      8444      8442      8445      8446      8444      8442      8445      8447
      8444      8442      8445      8448      8445      8448      8451      8452
      8445      8448      8451      8453      8445      8448      8451      8454
      8446      8445      8448      8449      8446      8445      8448      8450
      8446      8445      8448      8451      8447      8445      8448      8449
      8447      8445      8448      8450      8447      8445      8448      8451
      8448      8451      8454      8455      8448      8451      8454      8456
      8448      8451      8454      8457      8449      8448      8451      8452
      8449      8448      8451      8453      8449      8448      8451      8454
      8450      8448      8451      8452      8450      8448      8451      8453
      8450      8448      8451      8454      8452      8451      8454      8455
      8452      8451      8454      8456      8452      8451      8454      8457
      8453      8451      8454      8455      8453      8451      8454      8456
      8453      8451      8454      8457      8458      8461      8464      8465
      8458      8461      8464      8466      8458      8461      8464      8467
      8459      8458      8461      8462      8459      8458      8461      8463
      8459      8458      8461      8464      8460      8458      8461      8462
      8460      8458      8461      8463      8460      8458      8461      8464
      8461      8464      8467      8468      8461      8464      8467      8469
      8461      8464      8467      8470      8462      8461      8464      8465
      8462      8461      8464      8466      8462      8461      8464      8467
      8463      8461      8464      8465      8463      8461      8464      8466
      8463      8461      8464      8467      8464      8467      8470      8471
      8464      8467      8470      8472      8464      8467      8470      8473
      8465      8464      8467      8468      8465      8464      8467      8469
      8465      8464      8467      8470      8466      8464      8467      8468
      8466      8464      8467      8469      8466      8464      8467      8470
      8467      8470      8473      8474      8467      8470      8473      8475
      8467      8470      8473      8476      8468      8467      8470      8471
      8468      8467      8470      8472      8468      8467      8470      8473
      8469      8467      8470      8471      8469      8467      8470      8472
      8469      8467      8470      8473      8470      8473      8476      8477
      8470      8473      8476      8478      8471      8470      8473      8474
      8471      8470      8473      8475      8471      8470      8473      8476
      8472      8470      8473      8474      8472      8470      8473      8475
      8472      8470      8473      8476      8473      8476      8478      8479
      8473      8476      8478      8480      8474      8473      8476      8477
      8474      8473      8476      8478      8475      8473      8476      8477
      8475      8473      8476      8478      8476      8478      8480      8481
      8476      8478      8480      8482      8476      8478      8480      8483
      8477      8476      8478      8479      8477      8476      8478      8480
      8478      8480      8483      8484      8478      8480      8483      8485
      8478      8480      8483      8486      8479      8478      8480      8481
      8479      8478      8480      8482      8479      8478      8480      8483
      8480      8483      8486      8487      8480      8483      8486      8488
      8480      8483      8486      8489      8481      8480      8483      8484
      8481      8480      8483      8485      8481      8480      8483      8486
      8482      8480      8483      8484      8482      8480      8483      8485
      8482      8480      8483      8486      8483      8486      8489      8490
      8483      8486      8489      8491      8483      8486      8489      8492
      8484      8483      8486      8487      8484      8483      8486      8488
      8484      8483      8486      8489      8485      8483      8486      8487
      8485      8483      8486      8488      8485      8483      8486      8489
      8486      8489      8492      8493      8486      8489      8492      8494
      8486      8489      8492      8495      8487      8486      8489      8490
      8487      8486      8489      8491      8487      8486      8489      8492
      8488      8486      8489      8490      8488      8486      8489      8491
      8488      8486      8489      8492      8489      8492      8495      8496
      8489      8492      8495      8497      8489      8492      8495      8498
      8490      8489      8492      8493      8490      8489      8492      8494
      8490      8489      8492      8495      8491      8489      8492      8493
      8491      8489      8492      8494      8491      8489      8492      8495
      8492      8495      8498      8499      8492      8495      8498      8500
      8492      8495      8498      8501      8493      8492      8495      8496
      8493      8492      8495      8497      8493      8492      8495      8498
      8494      8492      8495      8496      8494      8492      8495      8497
      8494      8492      8495      8498      8495      8498      8501      8502
      8495      8498      8501      8503      8495      8498      8501      8504
      8496      8495      8498      8499      8496      8495      8498      8500
      8496      8495      8498      8501      8497      8495      8498      8499
      8497      8495      8498      8500      8497      8495      8498      8501
      8499      8498      8501      8502      8499      8498      8501      8503
      8499      8498      8501      8504      8500      8498      8501      8502
      8500      8498      8501      8503      8500      8498      8501      8504
      8505      8506      8521      8522      8505      8506      8521      8523
      8505      8506      8521      8527      8506      8505      8509      8510
      8506      8505      8509      8511      8506      8505      8509      8512
      8506      8505      8513      8514      8506      8505      8513      8515
      8506      8505      8513      8516      8506      8505      8517      8518
      8506      8505      8517      8519      8506      8505      8517      8520
      8506      8521      8527      8524      8507      8506      8505      8509
      8507      8506      8505      8513      8507      8506      8505      8517
      8507      8506      8521      8522      8507      8506      8521      8523
      8507      8506      8521      8527      8508      8506      8505      8509
      8508      8506      8505      8513      8508      8506      8505      8517
      8508      8506      8521      8522      8508      8506      8521      8523
      8508      8506      8521      8527      8509      8505      8506      8521
      8509      8505      8513      8514      8509      8505      8513      8515
      8509      8505      8513      8516      8509      8505      8517      8518
      8509      8505      8517      8519      8509      8505      8517      8520
      8510      8509      8505      8513      8510      8509      8505      8517
      8511      8509      8505      8513      8511      8509      8505      8517
      8512      8509      8505      8513      8512      8509      8505      8517
      8513      8505      8506      8521      8513      8505      8517      8518
      8513      8505      8517      8519      8513      8505      8517      8520
      8514      8513      8505      8517      8515      8513      8505      8517
      8516      8513      8505      8517      8517      8505      8506      8521
      8521      8527      8524      8525      8521      8527      8524      8526
      8521      8527      8524      8528      8522      8521      8527      8524
      8523      8521      8527      8524      8524      8528      8529      8530
      8524      8528      8529      8531      8524      8528      8529      8532
      8525      8524      8528      8529      8526      8524      8528      8529
      8527      8524      8528      8529      8528      8529      8532      8533
      8528      8529      8532      8534      8528      8529      8532      8540
      8529      8532      8534      8535      8529      8532      8540      8541
      8529      8532      8540      8542      8529      8532      8540      8543
      8530      8529      8532      8533      8530      8529      8532      8534
      8530      8529      8532      8540      8531      8529      8532      8533
      8531      8529      8532      8534      8531      8529      8532      8540
      8532      8534      8535      8536      8532      8534      8535      8537
      8532      8540      8543      8544      8533      8532      8534      8535
      8533      8532      8540      8541      8533      8532      8540      8542
      8533      8532      8540      8543      8534      8532      8540      8541
      8534      8532      8540      8542      8534      8532      8540      8543
      8534      8535      8537      8538      8534      8535      8537      8539
      8534      8535      8537      8549      8535      8534      8532      8540
      8535      8537      8549      8550      8535      8537      8549      8551
      8535      8537      8549      8552      8536      8535      8537      8538
      8536      8535      8537      8539      8536      8535      8537      8549
      8537      8549      8552      8553      8537      8549      8552      8554
      8537      8549      8552      8555      8538      8537      8549      8550
      8538      8537      8549      8551      8538      8537      8549      8552
      8539      8537      8549      8550      8539      8537      8549      8551
      8539      8537      8549      8552      8540      8543      8544      8545
      8540      8543      8544      8546      8541      8540      8543      8544
      8542      8540      8543      8544      8543      8544      8546      8547
      8543      8544      8546      8548      8543      8544      8546      8596
      8544      8546      8596      8597      8544      8546      8596      8598
      8544      8546      8596      8599      8545      8544      8546      8547
      8545      8544      8546      8548      8545      8544      8546      8596
      8546      8596      8599      8600      8546      8596      8599      8601
      8546      8596      8599      8602      8547      8546      8596      8597
      8547      8546      8596      8598      8547      8546      8596      8599
      8548      8546      8596      8597      8548      8546      8596      8598
      8548      8546      8596      8599      8549      8552      8555      8556
      8549      8552      8555      8557      8549      8552      8555      8558
      8550      8549      8552      8553      8550      8549      8552      8554
      8550      8549      8552      8555      8551      8549      8552      8553
      8551      8549      8552      8554      8551      8549      8552      8555
      8552      8555      8558      8559      8552      8555      8558      8560
      8552      8555      8558      8561      8553      8552      8555      8556
      8553      8552      8555      8557      8553      8552      8555      8558
      8554      8552      8555      8556      8554      8552      8555      8557
      8554      8552      8555      8558      8555      8558      8561      8562
      8555      8558      8561      8563      8555      8558      8561      8564
      8556      8555      8558      8559      8556      8555      8558      8560
      8556      8555      8558      8561      8557      8555      8558      8559
      8557      8555      8558      8560      8557      8555      8558      8561
      8558      8561      8564      8565      8558      8561      8564      8566
      8558      8561      8564      8567      8559      8558      8561      8562
      8559      8558      8561      8563      8559      8558      8561      8564
      8560      8558      8561      8562      8560      8558      8561      8563
      8560      8558      8561      8564      8561      8564      8567      8568
      8561      8564      8567      8569      8562      8561      8564      8565
      8562      8561      8564      8566      8562      8561      8564      8567
      8563      8561      8564      8565      8563      8561      8564      8566
      8563      8561      8564      8567      8564      8567      8569      8570
      8564      8567      8569      8571      8565      8564      8567      8568
      8565      8564      8567      8569      8566      8564      8567      8568
      8566      8564      8567      8569      8567      8569      8571      8572
      8567      8569      8571      8573      8567      8569      8571      8574
      8568      8567      8569      8570      8568      8567      8569      8571
      8569      8571      8574      8575      8569      8571      8574      8576
      8569      8571      8574      8577      8570      8569      8571      8572
      8570      8569      8571      8573      8570      8569      8571      8574
      8571      8574      8577      8578      8571      8574      8577      8579
      8571      8574      8577      8580      8572      8571      8574      8575
      8572      8571      8574      8576      8572      8571      8574      8577
      8573      8571      8574      8575      8573      8571      8574      8576
      8573      8571      8574      8577      8574      8577      8580      8581
      8574      8577      8580      8582      8574      8577      8580      8583
      8575      8574      8577      8578      8575      8574      8577      8579
      8575      8574      8577      8580      8576      8574      8577      8578
      8576      8574      8577      8579      8576      8574      8577      8580
      8577      8580      8583      8584      8577      8580      8583      8585
      8577      8580      8583      8586      8578      8577      8580      8581
      8578      8577      8580      8582      8578      8577      8580      8583
      8579      8577      8580      8581      8579      8577      8580      8582
      8579      8577      8580      8583      8580      8583      8586      8587
      8580      8583      8586      8588      8580      8583      8586      8589
      8581      8580      8583      8584      8581      8580      8583      8585
      8581      8580      8583      8586      8582      8580      8583      8584
      8582      8580      8583      8585      8582      8580      8583      8586
      8583      8586      8589      8590      8583      8586      8589      8591
      8583      8586      8589      8592      8584      8583      8586      8587
      8584      8583      8586      8588      8584      8583      8586      8589
      8585      8583      8586      8587      8585      8583      8586      8588
      8585      8583      8586      8589      8586      8589      8592      8593
      8586      8589      8592      8594      8586      8589      8592      8595
      8587      8586      8589      8590      8587      8586      8589      8591
      8587      8586      8589      8592      8588      8586      8589      8590
      8588      8586      8589      8591      8588      8586      8589      8592
      8590      8589      8592      8593      8590      8589      8592      8594
      8590      8589      8592      8595      8591      8589      8592      8593
      8591      8589      8592      8594      8591      8589      8592      8595
      8596      8599      8602      8603      8596      8599      8602      8604
      8596      8599      8602      8605      8597      8596      8599      8600
      8597      8596      8599      8601      8597      8596      8599      8602
      8598      8596      8599      8600      8598      8596      8599      8601
      8598      8596      8599      8602      8599      8602      8605      8606
      8599      8602      8605      8607      8599      8602      8605      8608
      8600      8599      8602      8603      8600      8599      8602      8604
      8600      8599      8602      8605      8601      8599      8602      8603
      8601      8599      8602      8604      8601      8599      8602      8605
      8602      8605      8608      8609      8602      8605      8608      8610
      8602      8605      8608      8611      8603      8602      8605      8606
      8603      8602      8605      8607      8603      8602      8605      8608
      8604      8602      8605      8606      8604      8602      8605      8607
      8604      8602      8605      8608      8605      8608      8611      8612
      8605      8608      8611      8613      8605      8608      8611      8614
      8606      8605      8608      8609      8606      8605      8608      8610
      8606      8605      8608      8611      8607      8605      8608      8609
      8607      8605      8608      8610      8607      8605      8608      8611
      8608      8611      8614      8615      8608      8611      8614      8616
      8609      8608      8611      8612      8609      8608      8611      8613
      8609      8608      8611      8614      8610      8608      8611      8612
      8610      8608      8611      8613      8610      8608      8611      8614
      8611      8614      8616      8617      8611      8614      8616      8618
      8612      8611      8614      8615      8612      8611      8614      8616
      8613      8611      8614      8615      8613      8611      8614      8616
      8614      8616      8618      8619      8614      8616      8618      8620
      8614      8616      8618      8621      8615      8614      8616      8617
      8615      8614      8616      8618      8616      8618      8621      8622
      8616      8618      8621      8623      8616      8618      8621      8624
      8617      8616      8618      8619      8617      8616      8618      8620
      8617      8616      8618      8621      8618      8621      8624      8625
      8618      8621      8624      8626      8618      8621      8624      8627
      8619      8618      8621      8622      8619      8618      8621      8623
      8619      8618      8621      8624      8620      8618      8621      8622
      8620      8618      8621      8623      8620      8618      8621      8624
      8621      8624      8627      8628      8621      8624      8627      8629
      8621      8624      8627      8630      8622      8621      8624      8625
      8622      8621      8624      8626      8622      8621      8624      8627
      8623      8621      8624      8625      8623      8621      8624      8626
      8623      8621      8624      8627      8624      8627      8630      8631
      8624      8627      8630      8632      8624      8627      8630      8633
      8625      8624      8627      8628      8625      8624      8627      8629
      8625      8624      8627      8630      8626      8624      8627      8628
      8626      8624      8627      8629      8626      8624      8627      8630
      8627      8630      8633      8634      8627      8630      8633      8635
      8627      8630      8633      8636      8628      8627      8630      8631
      8628      8627      8630      8632      8628      8627      8630      8633
      8629      8627      8630      8631      8629      8627      8630      8632
      8629      8627      8630      8633      8630      8633      8636      8637
      8630      8633      8636      8638      8630      8633      8636      8639
      8631      8630      8633      8634      8631      8630      8633      8635
      8631      8630      8633      8636      8632      8630      8633      8634
      8632      8630      8633      8635      8632      8630      8633      8636
      8633      8636      8639      8640      8633      8636      8639      8641
      8633      8636      8639      8642      8634      8633      8636      8637
      8634      8633      8636      8638      8634      8633      8636      8639
      8635      8633      8636      8637      8635      8633      8636      8638
      8635      8633      8636      8639      8637      8636      8639      8640
      8637      8636      8639      8641      8637      8636      8639      8642
      8638      8636      8639      8640      8638      8636      8639      8641
      8638      8636      8639      8642      8643      8644      8659      8660
      8643      8644      8659      8661      8643      8644      8659      8665
      8644      8643      8647      8648      8644      8643      8647      8649
      8644      8643      8647      8650      8644      8643      8651      8652
      8644      8643      8651      8653      8644      8643      8651      8654
      8644      8643      8655      8656      8644      8643      8655      8657
      8644      8643      8655      8658      8644      8659      8665      8662
      8645      8644      8643      8647      8645      8644      8643      8651
      8645      8644      8643      8655      8645      8644      8659      8660
      8645      8644      8659      8661      8645      8644      8659      8665
      8646      8644      8643      8647      8646      8644      8643      8651
      8646      8644      8643      8655      8646      8644      8659      8660
      8646      8644      8659      8661      8646      8644      8659      8665
      8647      8643      8644      8659      8647      8643      8651      8652
      8647      8643      8651      8653      8647      8643      8651      8654
      8647      8643      8655      8656      8647      8643      8655      8657
      8647      8643      8655      8658      8648      8647      8643      8651
      8648      8647      8643      8655      8649      8647      8643      8651
      8649      8647      8643      8655      8650      8647      8643      8651
      8650      8647      8643      8655      8651      8643      8644      8659
      8651      8643      8655      8656      8651      8643      8655      8657
      8651      8643      8655      8658      8652      8651      8643      8655
      8653      8651      8643      8655      8654      8651      8643      8655
      8655      8643      8644      8659      8659      8665      8662      8663
      8659      8665      8662      8664      8659      8665      8662      8666
      8660      8659      8665      8662      8661      8659      8665      8662
      8662      8666      8667      8668      8662      8666      8667      8669
      8662      8666      8667      8670      8663      8662      8666      8667
      8664      8662      8666      8667      8665      8662      8666      8667
      8666      8667      8670      8671      8666      8667      8670      8672
      8666      8667      8670      8678      8667      8670      8672      8673
      8667      8670      8678      8679      8667      8670      8678      8680
      8667      8670      8678      8681      8668      8667      8670      8671
      8668      8667      8670      8672      8668      8667      8670      8678
      8669      8667      8670      8671      8669      8667      8670      8672
      8669      8667      8670      8678      8670      8672      8673      8674
      8670      8672      8673      8675      8670      8678      8681      8682
      8671      8670      8672      8673      8671      8670      8678      8679
      8671      8670      8678      8680      8671      8670      8678      8681
      8672      8670      8678      8679      8672      8670      8678      8680
      8672      8670      8678      8681      8672      8673      8675      8676
      8672      8673      8675      8677      8672      8673      8675      8687
      8673      8672      8670      8678      8673      8675      8687      8688
      8673      8675      8687      8689      8673      8675      8687      8690
      8674      8673      8675      8676      8674      8673      8675      8677
      8674      8673      8675      8687      8675      8687      8690      8691
      8675      8687      8690      8692      8675      8687      8690      8693
      8676      8675      8687      8688      8676      8675      8687      8689
      8676      8675      8687      8690      8677      8675      8687      8688
      8677      8675      8687      8689      8677      8675      8687      8690
      8678      8681      8682      8683      8678      8681      8682      8684
      8679      8678      8681      8682      8680      8678      8681      8682
      8681      8682      8684      8685      8681      8682      8684      8686
      8681      8682      8684      8734      8682      8684      8734      8735
      8682      8684      8734      8736      8682      8684      8734      8737
      8683      8682      8684      8685      8683      8682      8684      8686
      8683      8682      8684      8734      8684      8734      8737      8738
      8684      8734      8737      8739      8684      8734      8737      8740
      8685      8684      8734      8735      8685      8684      8734      8736
      8685      8684      8734      8737      8686      8684      8734      8735
      8686      8684      8734      8736      8686      8684      8734      8737
      8687      8690      8693      8694      8687      8690      8693      8695
      8687      8690      8693      8696      8688      8687      8690      8691
      8688      8687      8690      8692      8688      8687      8690      8693
      8689      8687      8690      8691      8689      8687      8690      8692
      8689      8687      8690      8693      8690      8693      8696      8697
      8690      8693      8696      8698      8690      8693      8696      8699
      8691      8690      8693      8694      8691      8690      8693      8695
      8691      8690      8693      8696      8692      8690      8693      8694
      8692      8690      8693      8695      8692      8690      8693      8696
      8693      8696      8699      8700      8693      8696      8699      8701
      8693      8696      8699      8702      8694      8693      8696      8697
      8694      8693      8696      8698      8694      8693      8696      8699
      8695      8693      8696      8697      8695      8693      8696      8698
      8695      8693      8696      8699      8696      8699      8702      8703
      8696      8699      8702      8704      8696      8699      8702      8705
      8697      8696      8699      8700      8697      8696      8699      8701
      8697      8696      8699      8702      8698      8696      8699      8700
      8698      8696      8699      8701      8698      8696      8699      8702
      8699      8702      8705      8706      8699      8702      8705      8707
      8700      8699      8702      8703      8700      8699      8702      8704
      8700      8699      8702      8705      8701      8699      8702      8703
      8701      8699      8702      8704      8701      8699      8702      8705
      8702      8705      8707      8708      8702      8705      8707      8709
      8703      8702      8705      8706      8703      8702      8705      8707
      8704      8702      8705      8706      8704      8702      8705      8707
      8705      8707      8709      8710      8705      8707      8709      8711
      8705      8707      8709      8712      8706      8705      8707      8708
      8706      8705      8707      8709      8707      8709      8712      8713
      8707      8709      8712      8714      8707      8709      8712      8715
      8708      8707      8709      8710      8708      8707      8709      8711
      8708      8707      8709      8712      8709      8712      8715      8716
      8709      8712      8715      8717      8709      8712      8715      8718
      8710      8709      8712      8713      8710      8709      8712      8714
      8710      8709      8712      8715      8711      8709      8712      8713
      8711      8709      8712      8714      8711      8709      8712      8715
      8712      8715      8718      8719      8712      8715      8718      8720
      8712      8715      8718      8721      8713      8712      8715      8716
      8713      8712      8715      8717      8713      8712      8715      8718
      8714      8712      8715      8716      8714      8712      8715      8717
      8714      8712      8715      8718      8715      8718      8721      8722
      8715      8718      8721      8723      8715      8718      8721      8724
      8716      8715      8718      8719      8716      8715      8718      8720
      8716      8715      8718      8721      8717      8715      8718      8719
      8717      8715      8718      8720      8717      8715      8718      8721
      8718      8721      8724      8725      8718      8721      8724      8726
      8718      8721      8724      8727      8719      8718      8721      8722
      8719      8718      8721      8723      8719      8718      8721      8724
      8720      8718      8721      8722      8720      8718      8721      8723
      8720      8718      8721      8724      8721      8724      8727      8728
      8721      8724      8727      8729      8721      8724      8727      8730
      8722      8721      8724      8725      8722      8721      8724      8726
      8722      8721      8724      8727      8723      8721      8724      8725
      8723      8721      8724      8726      8723      8721      8724      8727
      8724      8727      8730      8731      8724      8727      8730      8732
      8724      8727      8730      8733      8725      8724      8727      8728
      8725      8724      8727      8729      8725      8724      8727      8730
      8726      8724      8727      8728      8726      8724      8727      8729
      8726      8724      8727      8730      8728      8727      8730      8731
      8728      8727      8730      8732      8728      8727      8730      8733
      8729      8727      8730      8731      8729      8727      8730      8732
      8729      8727      8730      8733      8734      8737      8740      8741
      8734      8737      8740      8742      8734      8737      8740      8743
      8735      8734      8737      8738      8735      8734      8737      8739
      8735      8734      8737      8740      8736      8734      8737      8738
      8736      8734      8737      8739      8736      8734      8737      8740
      8737      8740      8743      8744      8737      8740      8743      8745
      8737      8740      8743      8746      8738      8737      8740      8741
      8738      8737      8740      8742      8738      8737      8740      8743
      8739      8737      8740      8741      8739      8737      8740      8742
      8739      8737      8740      8743      8740      8743      8746      8747
      8740      8743      8746      8748      8740      8743      8746      8749
      8741      8740      8743      8744      8741      8740      8743      8745
      8741      8740      8743      8746      8742      8740      8743      8744
      8742      8740      8743      8745      8742      8740      8743      8746
      8743      8746      8749      8750      8743      8746      8749      8751
      8743      8746      8749      8752      8744      8743      8746      8747
      8744      8743      8746      8748      8744      8743      8746      8749
      8745      8743      8746      8747      8745      8743      8746      8748
      8745      8743      8746      8749      8746      8749      8752      8753
      8746      8749      8752      8754      8747      8746      8749      8750
      8747      8746      8749      8751      8747      8746      8749      8752
      8748      8746      8749      8750      8748      8746      8749      8751
      8748      8746      8749      8752      8749      8752      8754      8755
      8749      8752      8754      8756      8750      8749      8752      8753
      8750      8749      8752      8754      8751      8749      8752      8753
      8751      8749      8752      8754      8752      8754      8756      8757
      8752      8754      8756      8758      8752      8754      8756      8759
      8753      8752      8754      8755      8753      8752      8754      8756
      8754      8756      8759      8760      8754      8756      8759      8761
      8754      8756      8759      8762      8755      8754      8756      8757
      8755      8754      8756      8758      8755      8754      8756      8759
      8756      8759      8762      8763      8756      8759      8762      8764
      8756      8759      8762      8765      8757      8756      8759      8760
      8757      8756      8759      8761      8757      8756      8759      8762
      8758      8756      8759      8760      8758      8756      8759      8761
      8758      8756      8759      8762      8759      8762      8765      8766
      8759      8762      8765      8767      8759      8762      8765      8768
      8760      8759      8762      8763      8760      8759      8762      8764
      8760      8759      8762      8765      8761      8759      8762      8763
      8761      8759      8762      8764      8761      8759      8762      8765
      8762      8765      8768      8769      8762      8765      8768      8770
      8762      8765      8768      8771      8763      8762      8765      8766
      8763      8762      8765      8767      8763      8762      8765      8768
      8764      8762      8765      8766      8764      8762      8765      8767
      8764      8762      8765      8768      8765      8768      8771      8772
      8765      8768      8771      8773      8765      8768      8771      8774
      8766      8765      8768      8769      8766      8765      8768      8770
      8766      8765      8768      8771      8767      8765      8768      8769
      8767      8765      8768      8770      8767      8765      8768      8771
      8768      8771      8774      8775      8768      8771      8774      8776
      8768      8771      8774      8777      8769      8768      8771      8772
      8769      8768      8771      8773      8769      8768      8771      8774
      8770      8768      8771      8772      8770      8768      8771      8773
      8770      8768      8771      8774      8771      8774      8777      8778
      8771      8774      8777      8779      8771      8774      8777      8780
      8772      8771      8774      8775      8772      8771      8774      8776
      8772      8771      8774      8777      8773      8771      8774      8775
      8773      8771      8774      8776      8773      8771      8774      8777
      8775      8774      8777      8778      8775      8774      8777      8779
      8775      8774      8777      8780      8776      8774      8777      8778
      8776      8774      8777      8779      8776      8774      8777      8780
      8781      8782      8797      8798      8781      8782      8797      8799
      8781      8782      8797      8803      8782      8781      8785      8786
      8782      8781      8785      8787      8782      8781      8785      8788
      8782      8781      8789      8790      8782      8781      8789      8791
      8782      8781      8789      8792      8782      8781      8793      8794
      8782      8781      8793      8795      8782      8781      8793      8796
      8782      8797      8803      8800      8783      8782      8781      8785
      8783      8782      8781      8789      8783      8782      8781      8793
      8783      8782      8797      8798      8783      8782      8797      8799
      8783      8782      8797      8803      8784      8782      8781      8785
      8784      8782      8781      8789      8784      8782      8781      8793
      8784      8782      8797      8798      8784      8782      8797      8799
      8784      8782      8797      8803      8785      8781      8782      8797
      8785      8781      8789      8790      8785      8781      8789      8791
      8785      8781      8789      8792      8785      8781      8793      8794
      8785      8781      8793      8795      8785      8781      8793      8796
      8786      8785      8781      8789      8786      8785      8781      8793
      8787      8785      8781      8789      8787      8785      8781      8793
      8788      8785      8781      8789      8788      8785      8781      8793
      8789      8781      8782      8797      8789      8781      8793      8794
      8789      8781      8793      8795      8789      8781      8793      8796
      8790      8789      8781      8793      8791      8789      8781      8793
      8792      8789      8781      8793      8793      8781      8782      8797
      8797      8803      8800      8801      8797      8803      8800      8802
      8797      8803      8800      8804      8798      8797      8803      8800
      8799      8797      8803      8800      8800      8804      8805      8806
      8800      8804      8805      8807      8800      8804      8805      8808
      8801      8800      8804      8805      8802      8800      8804      8805
      8803      8800      8804      8805      8804      8805      8808      8809
      8804      8805      8808      8810      8804      8805      8808      8816
      8805      8808      8810      8811      8805      8808      8816      8817
      8805      8808      8816      8818      8805      8808      8816      8819
      8806      8805      8808      8809      8806      8805      8808      8810
      8806      8805      8808      8816      8807      8805      8808      8809
      8807      8805      8808      8810      8807      8805      8808      8816
      8808      8810      8811      8812      8808      8810      8811      8813
      8808      8816      8819      8820      8809      8808      8810      8811
      8809      8808      8816      8817      8809      8808      8816      8818
      8809      8808      8816      8819      8810      8808      8816      8817
      8810      8808      8816      8818      8810      8808      8816      8819
      8810      8811      8813      8814      8810      8811      8813      8815
      8810      8811      8813      8825      8811      8810      8808      8816
      8811      8813      8825      8826      8811      8813      8825      8827
      8811      8813      8825      8828      8812      8811      8813      8814
      8812      8811      8813      8815      8812      8811      8813      8825
      8813      8825      8828      8829      8813      8825      8828      8830
      8813      8825      8828      8831      8814      8813      8825      8826
      8814      8813      8825      8827      8814      8813      8825      8828
      8815      8813      8825      8826      8815      8813      8825      8827
      8815      8813      8825      8828      8816      8819      8820      8821
      8816      8819      8820      8822      8817      8816      8819      8820
      8818      8816      8819      8820      8819      8820      8822      8823
      8819      8820      8822      8824      8819      8820      8822      8872
      8820      8822      8872      8873      8820      8822      8872      8874
      8820      8822      8872      8875      8821      8820      8822      8823
      8821      8820      8822      8824      8821      8820      8822      8872
      8822      8872      8875      8876      8822      8872      8875      8877
      8822      8872      8875      8878      8823      8822      8872      8873
      8823      8822      8872      8874      8823      8822      8872      8875
      8824      8822      8872      8873      8824      8822      8872      8874
      8824      8822      8872      8875      8825      8828      8831      8832
      8825      8828      8831      8833      8825      8828      8831      8834
      8826      8825      8828      8829      8826      8825      8828      8830
      8826      8825      8828      8831      8827      8825      8828      8829
      8827      8825      8828      8830      8827      8825      8828      8831
      8828      8831      8834      8835      8828      8831      8834      8836
      8828      8831      8834      8837      8829      8828      8831      8832
      8829      8828      8831      8833      8829      8828      8831      8834
      8830      8828      8831      8832      8830      8828      8831      8833
      8830      8828      8831      8834      8831      8834      8837      8838
      8831      8834      8837      8839      8831      8834      8837      8840
      8832      8831      8834      8835      8832      8831      8834      8836
      8832      8831      8834      8837      8833      8831      8834      8835
      8833      8831      8834      8836      8833      8831      8834      8837
      8834      8837      8840      8841      8834      8837      8840      8842
      8834      8837      8840      8843      8835      8834      8837      8838
      8835      8834      8837      8839      8835      8834      8837      8840
      8836      8834      8837      8838      8836      8834      8837      8839
      8836      8834      8837      8840      8837      8840      8843      8844
      8837      8840      8843      8845      8838      8837      8840      8841
      8838      8837      8840      8842      8838      8837      8840      8843
      8839      8837      8840      8841      8839      8837      8840      8842
      8839      8837      8840      8843      8840      8843      8845      8846
      8840      8843      8845      8847      8841      8840      8843      8844
      8841      8840      8843      8845      8842      8840      8843      8844
      8842      8840      8843      8845      8843      8845      8847      8848
      8843      8845      8847      8849      8843      8845      8847      8850
      8844      8843      8845      8846      8844      8843      8845      8847
      8845      8847      8850      8851      8845      8847      8850      8852
      8845      8847      8850      8853      8846      8845      8847      8848
      8846      8845      8847      8849      8846      8845      8847      8850
      8847      8850      8853      8854      8847      8850      8853      8855
      8847      8850      8853      8856      8848      8847      8850      8851
      8848      8847      8850      8852      8848      8847      8850      8853
      8849      8847      8850      8851      8849      8847      8850      8852
      8849      8847      8850      8853      8850      8853      8856      8857
      8850      8853      8856      8858      8850      8853      8856      8859
      8851      8850      8853      8854      8851      8850      8853      8855
      8851      8850      8853      8856      8852      8850      8853      8854
      8852      8850      8853      8855      8852      8850      8853      8856
      8853      8856      8859      8860      8853      8856      8859      8861
      8853      8856      8859      8862      8854      8853      8856      8857
      8854      8853      8856      8858      8854      8853      8856      8859
      8855      8853      8856      8857      8855      8853      8856      8858
      8855      8853      8856      8859      8856      8859      8862      8863
      8856      8859      8862      8864      8856      8859      8862      8865
      8857      8856      8859      8860      8857      8856      8859      8861
      8857      8856      8859      8862      8858      8856      8859      8860
      8858      8856      8859      8861      8858      8856      8859      8862
      8859      8862      8865      8866      8859      8862      8865      8867
      8859      8862      8865      8868      8860      8859      8862      8863
      8860      8859      8862      8864      8860      8859      8862      8865
      8861      8859      8862      8863      8861      8859      8862      8864
      8861      8859      8862      8865      8862      8865      8868      8869
      8862      8865      8868      8870      8862      8865      8868      8871
      8863      8862      8865      8866      8863      8862      8865      8867
      8863      8862      8865      8868      8864      8862      8865      8866
      8864      8862      8865      8867      8864      8862      8865      8868
      8866      8865      8868      8869      8866      8865      8868      8870
      8866      8865      8868      8871      8867      8865      8868      8869
      8867      8865      8868      8870      8867      8865      8868      8871
      8872      8875      8878      8879      8872      8875      8878      8880
      8872      8875      8878      8881      8873      8872      8875      8876
      8873      8872      8875      8877      8873      8872      8875      8878
      8874      8872      8875      8876      8874      8872      8875      8877
      8874      8872      8875      8878      8875      8878      8881      8882
      8875      8878      8881      8883      8875      8878      8881      8884
      8876      8875      8878      8879      8876      8875      8878      8880
      8876      8875      8878      8881      8877      8875      8878      8879
      8877      8875      8878      8880      8877      8875      8878      8881
      8878      8881      8884      8885      8878      8881      8884      8886
      8878      8881      8884      8887      8879      8878      8881      8882
      8879      8878      8881      8883      8879      8878      8881      8884
      8880      8878      8881      8882      8880      8878      8881      8883
      8880      8878      8881      8884      8881      8884      8887      8888
      8881      8884      8887      8889      8881      8884      8887      8890
      8882      8881      8884      8885      8882      8881      8884      8886
      8882      8881      8884      8887      8883      8881      8884      8885
      8883      8881      8884      8886      8883      8881      8884      8887
      8884      8887      8890      8891      8884      8887      8890      8892
      8885      8884      8887      8888      8885      8884      8887      8889
      8885      8884      8887      8890      8886      8884      8887      8888
      8886      8884      8887      8889      8886      8884      8887      8890
      8887      8890      8892      8893      8887      8890      8892      8894
      8888      8887      8890      8891      8888      8887      8890      8892
      8889      8887      8890      8891      8889      8887      8890      8892
      8890      8892      8894      8895      8890      8892      8894      8896
      8890      8892      8894      8897      8891      8890      8892      8893
      8891      8890      8892      8894      8892      8894      8897      8898
      8892      8894      8897      8899      8892      8894      8897      8900
      8893      8892      8894      8895      8893      8892      8894      8896
      8893      8892      8894      8897      8894      8897      8900      8901
      8894      8897      8900      8902      8894      8897      8900      8903
      8895      8894      8897      8898      8895      8894      8897      8899
      8895      8894      8897      8900      8896      8894      8897      8898
      8896      8894      8897      8899      8896      8894      8897      8900
      8897      8900      8903      8904      8897      8900      8903      8905
      8897      8900      8903      8906      8898      8897      8900      8901
      8898      8897      8900      8902      8898      8897      8900      8903
      8899      8897      8900      8901      8899      8897      8900      8902
      8899      8897      8900      8903      8900      8903      8906      8907
      8900      8903      8906      8908      8900      8903      8906      8909
      8901      8900      8903      8904      8901      8900      8903      8905
      8901      8900      8903      8906      8902      8900      8903      8904
      8902      8900      8903      8905      8902      8900      8903      8906
      8903      8906      8909      8910      8903      8906      8909      8911
      8903      8906      8909      8912      8904      8903      8906      8907
      8904      8903      8906      8908      8904      8903      8906      8909
      8905      8903      8906      8907      8905      8903      8906      8908
      8905      8903      8906      8909      8906      8909      8912      8913
      8906      8909      8912      8914      8906      8909      8912      8915
      8907      8906      8909      8910      8907      8906      8909      8911
      8907      8906      8909      8912      8908      8906      8909      8910
      8908      8906      8909      8911      8908      8906      8909      8912
      8909      8912      8915      8916      8909      8912      8915      8917
      8909      8912      8915      8918      8910      8909      8912      8913
      8910      8909      8912      8914      8910      8909      8912      8915
      8911      8909      8912      8913      8911      8909      8912      8914
      8911      8909      8912      8915      8913      8912      8915      8916
      8913      8912      8915      8917      8913      8912      8915      8918
      8914      8912      8915      8916      8914      8912      8915      8917
      8914      8912      8915      8918      8919      8920      8935      8936
      8919      8920      8935      8937      8919      8920      8935      8941
      8920      8919      8923      8924      8920      8919      8923      8925
      8920      8919      8923      8926      8920      8919      8927      8928
      8920      8919      8927      8929      8920      8919      8927      8930
      8920      8919      8931      8932      8920      8919      8931      8933
      8920      8919      8931      8934      8920      8935      8941      8938
      8921      8920      8919      8923      8921      8920      8919      8927
      8921      8920      8919      8931      8921      8920      8935      8936
      8921      8920      8935      8937      8921      8920      8935      8941
      8922      8920      8919      8923      8922      8920      8919      8927
      8922      8920      8919      8931      8922      8920      8935      8936
      8922      8920      8935      8937      8922      8920      8935      8941
      8923      8919      8920      8935      8923      8919      8927      8928
      8923      8919      8927      8929      8923      8919      8927      8930
      8923      8919      8931      8932      8923      8919      8931      8933
      8923      8919      8931      8934      8924      8923      8919      8927
      8924      8923      8919      8931      8925      8923      8919      8927
      8925      8923      8919      8931      8926      8923      8919      8927
      8926      8923      8919      8931      8927      8919      8920      8935
      8927      8919      8931      8932      8927      8919      8931      8933
      8927      8919      8931      8934      8928      8927      8919      8931
      8929      8927      8919      8931      8930      8927      8919      8931
      8931      8919      8920      8935      8935      8941      8938      8939
      8935      8941      8938      8940      8935      8941      8938      8942
      8936      8935      8941      8938      8937      8935      8941      8938
      8938      8942      8943      8944      8938      8942      8943      8945
      8938      8942      8943      8946      8939      8938      8942      8943
      8940      8938      8942      8943      8941      8938      8942      8943
      8942      8943      8946      8947      8942      8943      8946      8948
      8942      8943      8946      8954      8943      8946      8948      8949
      8943      8946      8954      8955      8943      8946      8954      8956
      8943      8946      8954      8957      8944      8943      8946      8947
      8944      8943      8946      8948      8944      8943      8946      8954
      8945      8943      8946      8947      8945      8943      8946      8948
      8945      8943      8946      8954      8946      8948      8949      8950
      8946      8948      8949      8951      8946      8954      8957      8958
      8947      8946      8948      8949      8947      8946      8954      8955
      8947      8946      8954      8956      8947      8946      8954      8957
      8948      8946      8954      8955      8948      8946      8954      8956
      8948      8946      8954      8957      8948      8949      8951      8952
      8948      8949      8951      8953      8948      8949      8951      8963
      8949      8948      8946      8954      8949      8951      8963      8964
      8949      8951      8963      8965      8949      8951      8963      8966
      8950      8949      8951      8952      8950      8949      8951      8953
      8950      8949      8951      8963      8951      8963      8966      8967
      8951      8963      8966      8968      8951      8963      8966      8969
      8952      8951      8963      8964      8952      8951      8963      8965
      8952      8951      8963      8966      8953      8951      8963      8964
      8953      8951      8963      8965      8953      8951      8963      8966
      8954      8957      8958      8959      8954      8957      8958      8960
      8955      8954      8957      8958      8956      8954      8957      8958
      8957      8958      8960      8961      8957      8958      8960      8962
      8957      8958      8960      9010      8958      8960      9010      9011
      8958      8960      9010      9012      8958      8960      9010      9013
      8959      8958      8960      8961      8959      8958      8960      8962
      8959      8958      8960      9010      8960      9010      9013      9014
      8960      9010      9013      9015      8960      9010      9013      9016
      8961      8960      9010      9011      8961      8960      9010      9012
      8961      8960      9010      9013      8962      8960      9010      9011
      8962      8960      9010      9012      8962      8960      9010      9013
      8963      8966      8969      8970      8963      8966      8969      8971
      8963      8966      8969      8972      8964      8963      8966      8967
      8964      8963      8966      8968      8964      8963      8966      8969
      8965      8963      8966      8967      8965      8963      8966      8968
      8965      8963      8966      8969      8966      8969      8972      8973
      8966      8969      8972      8974      8966      8969      8972      8975
      8967      8966      8969      8970      8967      8966      8969      8971
      8967      8966      8969      8972      8968      8966      8969      8970
      8968      8966      8969      8971      8968      8966      8969      8972
      8969      8972      8975      8976      8969      8972      8975      8977
      8969      8972      8975      8978      8970      8969      8972      8973
      8970      8969      8972      8974      8970      8969      8972      8975
      8971      8969      8972      8973      8971      8969      8972      8974
      8971      8969      8972      8975      8972      8975      8978      8979
      8972      8975      8978      8980      8972      8975      8978      8981
      8973      8972      8975      8976      8973      8972      8975      8977
      8973      8972      8975      8978      8974      8972      8975      8976
      8974      8972      8975      8977      8974      8972      8975      8978
      8975      8978      8981      8982      8975      8978      8981      8983
      8976      8975      8978      8979      8976      8975      8978      8980
      8976      8975      8978      8981      8977      8975      8978      8979
      8977      8975      8978      8980      8977      8975      8978      8981
      8978      8981      8983      8984      8978      8981      8983      8985
      8979      8978      8981      8982      8979      8978      8981      8983
      8980      8978      8981      8982      8980      8978      8981      8983
      8981      8983      8985      8986      8981      8983      8985      8987
      8981      8983      8985      8988      8982      8981      8983      8984
      8982      8981      8983      8985      8983      8985      8988      8989
      8983      8985      8988      8990      8983      8985      8988      8991
      8984      8983      8985      8986      8984      8983      8985      8987
      8984      8983      8985      8988      8985      8988      8991      8992
      8985      8988      8991      8993      8985      8988      8991      8994
      8986      8985      8988      8989      8986      8985      8988      8990
      8986      8985      8988      8991      8987      8985      8988      8989
      8987      8985      8988      8990      8987      8985      8988      8991
      8988      8991      8994      8995      8988      8991      8994      8996
      8988      8991      8994      8997      8989      8988      8991      8992
      8989      8988      8991      8993      8989      8988      8991      8994
      8990      8988      8991      8992      8990      8988      8991      8993
      8990      8988      8991      8994      8991      8994      8997      8998
      8991      8994      8997      8999      8991      8994      8997      9000
      8992      8991      8994      8995      8992      8991      8994      8996
      8992      8991      8994      8997      8993      8991      8994      8995
      8993      8991      8994      8996      8993      8991      8994      8997
      8994      8997      9000      9001      8994      8997      9000      9002
      8994      8997      9000      9003      8995      8994      8997      8998
      8995      8994      8997      8999      8995      8994      8997      9000
      8996      8994      8997      8998      8996      8994      8997      8999
      8996      8994      8997      9000      8997      9000      9003      9004
      8997      9000      9003      9005      8997      9000      9003      9006
      8998      8997      9000      9001      8998      8997      9000      9002
      8998      8997      9000      9003      8999      8997      9000      9001
      8999      8997      9000      9002      8999      8997      9000      9003
      9000      9003      9006      9007      9000      9003      9006      9008
      9000      9003      9006      9009      9001      9000      9003      9004
      9001      9000      9003      9005      9001      9000      9003      9006
      9002      9000      9003      9004      9002      9000      9003      9005
      9002      9000      9003      9006      9004      9003      9006      9007
      9004      9003      9006      9008      9004      9003      9006      9009
      9005      9003      9006      9007      9005      9003      9006      9008
      9005      9003      9006      9009      9010      9013      9016      9017
      9010      9013      9016      9018      9010      9013      9016      9019
      9011      9010      9013      9014      9011      9010      9013      9015
      9011      9010      9013      9016      9012      9010      9013      9014
      9012      9010      9013      9015      9012      9010      9013      9016
      9013      9016      9019      9020      9013      9016      9019      9021
      9013      9016      9019      9022      9014      9013      9016      9017
      9014      9013      9016      9018      9014      9013      9016      9019
      9015      9013      9016      9017      9015      9013      9016      9018
      9015      9013      9016      9019      9016      9019      9022      9023
      9016      9019      9022      9024      9016      9019      9022      9025
      9017      9016      9019      9020      9017      9016      9019      9021
      9017      9016      9019      9022      9018      9016      9019      9020
      9018      9016      9019      9021      9018      9016      9019      9022
      9019      9022      9025      9026      9019      9022      9025      9027
      9019      9022      9025      9028      9020      9019      9022      9023
      9020      9019      9022      9024      9020      9019      9022      9025
      9021      9019      9022      9023      9021      9019      9022      9024
      9021      9019      9022      9025      9022      9025      9028      9029
      9022      9025      9028      9030      9023      9022      9025      9026
      9023      9022      9025      9027      9023      9022      9025      9028
      9024      9022      9025      9026      9024      9022      9025      9027
      9024      9022      9025      9028      9025      9028      9030      9031
      9025      9028      9030      9032      9026      9025      9028      9029
      9026      9025      9028      9030      9027      9025      9028      9029
      9027      9025      9028      9030      9028      9030      9032      9033
      9028      9030      9032      9034      9028      9030      9032      9035
      9029      9028      9030      9031      9029      9028      9030      9032
      9030      9032      9035      9036      9030      9032      9035      9037
      9030      9032      9035      9038      9031      9030      9032      9033
      9031      9030      9032      9034      9031      9030      9032      9035
      9032      9035      9038      9039      9032      9035      9038      9040
      9032      9035      9038      9041      9033      9032      9035      9036
      9033      9032      9035      9037      9033      9032      9035      9038
      9034      9032      9035      9036      9034      9032      9035      9037
      9034      9032      9035      9038      9035      9038      9041      9042
      9035      9038      9041      9043      9035      9038      9041      9044
      9036      9035      9038      9039      9036      9035      9038      9040
      9036      9035      9038      9041      9037      9035      9038      9039
      9037      9035      9038      9040      9037      9035      9038      9041
      9038      9041      9044      9045      9038      9041      9044      9046
      9038      9041      9044      9047      9039      9038      9041      9042
      9039      9038      9041      9043      9039      9038      9041      9044
      9040      9038      9041      9042      9040      9038      9041      9043
      9040      9038      9041      9044      9041      9044      9047      9048
      9041      9044      9047      9049      9041      9044      9047      9050
      9042      9041      9044      9045      9042      9041      9044      9046
      9042      9041      9044      9047      9043      9041      9044      9045
      9043      9041      9044      9046      9043      9041      9044      9047
      9044      9047      9050      9051      9044      9047      9050      9052
      9044      9047      9050      9053      9045      9044      9047      9048
      9045      9044      9047      9049      9045      9044      9047      9050
      9046      9044      9047      9048      9046      9044      9047      9049
      9046      9044      9047      9050      9047      9050      9053      9054
      9047      9050      9053      9055      9047      9050      9053      9056
      9048      9047      9050      9051      9048      9047      9050      9052
      9048      9047      9050      9053      9049      9047      9050      9051
      9049      9047      9050      9052      9049      9047      9050      9053
      9051      9050      9053      9054      9051      9050      9053      9055
      9051      9050      9053      9056      9052      9050      9053      9054
      9052      9050      9053      9055      9052      9050      9053      9056
      9057      9058      9073      9074      9057      9058      9073      9075
      9057      9058      9073      9079      9058      9057      9061      9062
      9058      9057      9061      9063      9058      9057      9061      9064
      9058      9057      9065      9066      9058      9057      9065      9067
      9058      9057      9065      9068      9058      9057      9069      9070
      9058      9057      9069      9071      9058      9057      9069      9072
      9058      9073      9079      9076      9059      9058      9057      9061
      9059      9058      9057      9065      9059      9058      9057      9069
      9059      9058      9073      9074      9059      9058      9073      9075
      9059      9058      9073      9079      9060      9058      9057      9061
      9060      9058      9057      9065      9060      9058      9057      9069
      9060      9058      9073      9074      9060      9058      9073      9075
      9060      9058      9073      9079      9061      9057      9058      9073
      9061      9057      9065      9066      9061      9057      9065      9067
      9061      9057      9065      9068      9061      9057      9069      9070
      9061      9057      9069      9071      9061      9057      9069      9072
      9062      9061      9057      9065      9062      9061      9057      9069
      9063      9061      9057      9065      9063      9061      9057      9069
      9064      9061      9057      9065      9064      9061      9057      9069
      9065      9057      9058      9073      9065      9057      9069      9070
      9065      9057      9069      9071      9065      9057      9069      9072
      9066      9065      9057      9069      9067      9065      9057      9069
      9068      9065      9057      9069      9069      9057      9058      9073
      9073      9079      9076      9077      9073      9079      9076      9078
      9073      9079      9076      9080      9074      9073      9079      9076
      9075      9073      9079      9076      9076      9080      9081      9082
      9076      9080      9081      9083      9076      9080      9081      9084
      9077      9076      9080      9081      9078      9076      9080      9081
      9079      9076      9080      9081      9080      9081      9084      9085
      9080      9081      9084      9086      9080      9081      9084      9092
      9081      9084      9086      9087      9081      9084      9092      9093
      9081      9084      9092      9094      9081      9084      9092      9095
      9082      9081      9084      9085      9082      9081      9084      9086
      9082      9081      9084      9092      9083      9081      9084      9085
      9083      9081      9084      9086      9083      9081      9084      9092
      9084      9086      9087      9088      9084      9086      9087      9089
      9084      9092      9095      9096      9085      9084      9086      9087
      9085      9084      9092      9093      9085      9084      9092      9094
      9085      9084      9092      9095      9086      9084      9092      9093
      9086      9084      9092      9094      9086      9084      9092      9095
      9086      9087      9089      9090      9086      9087      9089      9091
      9086      9087      9089      9101      9087      9086      9084      9092
      9087      9089      9101      9102      9087      9089      9101      9103
      9087      9089      9101      9104      9088      9087      9089      9090
      9088      9087      9089      9091      9088      9087      9089      9101
      9089      9101      9104      9105      9089      9101      9104      9106
      9089      9101      9104      9107      9090      9089      9101      9102
      9090      9089      9101      9103      9090      9089      9101      9104
      9091      9089      9101      9102      9091      9089      9101      9103
      9091      9089      9101      9104      9092      9095      9096      9097
      9092      9095      9096      9098      9093      9092      9095      9096
      9094      9092      9095      9096      9095      9096      9098      9099
      9095      9096      9098      9100      9095      9096      9098      9148
      9096      9098      9148      9149      9096      9098      9148      9150
      9096      9098      9148      9151      9097      9096      9098      9099
      9097      9096      9098      9100      9097      9096      9098      9148
      9098      9148      9151      9152      9098      9148      9151      9153
      9098      9148      9151      9154      9099      9098      9148      9149
      9099      9098      9148      9150      9099      9098      9148      9151
      9100      9098      9148      9149      9100      9098      9148      9150
      9100      9098      9148      9151      9101      9104      9107      9108
      9101      9104      9107      9109      9101      9104      9107      9110
      9102      9101      9104      9105      9102      9101      9104      9106
      9102      9101      9104      9107      9103      9101      9104      9105
      9103      9101      9104      9106      9103      9101      9104      9107
      9104      9107      9110      9111      9104      9107      9110      9112
      9104      9107      9110      9113      9105      9104      9107      9108
      9105      9104      9107      9109      9105      9104      9107      9110
      9106      9104      9107      9108      9106      9104      9107      9109
      9106      9104      9107      9110      9107      9110      9113      9114
      9107      9110      9113      9115      9107      9110      9113      9116
      9108      9107      9110      9111      9108      9107      9110      9112
      9108      9107      9110      9113      9109      9107      9110      9111
      9109      9107      9110      9112      9109      9107      9110      9113
      9110      9113      9116      9117      9110      9113      9116      9118
      9110      9113      9116      9119      9111      9110      9113      9114
      9111      9110      9113      9115      9111      9110      9113      9116
      9112      9110      9113      9114      9112      9110      9113      9115
      9112      9110      9113      9116      9113      9116      9119      9120
      9113      9116      9119      9121      9114      9113      9116      9117
      9114      9113      9116      9118      9114      9113      9116      9119
      9115      9113      9116      9117      9115      9113      9116      9118
      9115      9113      9116      9119      9116      9119      9121      9122
      9116      9119      9121      9123      9117      9116      9119      9120
      9117      9116      9119      9121      9118      9116      9119      9120
      9118      9116      9119      9121      9119      9121      9123      9124
      9119      9121      9123      9125      9119      9121      9123      9126
      9120      9119      9121      9122      9120      9119      9121      9123
      9121      9123      9126      9127      9121      9123      9126      9128
      9121      9123      9126      9129      9122      9121      9123      9124
      9122      9121      9123      9125      9122      9121      9123      9126
      9123      9126      9129      9130      9123      9126      9129      9131
      9123      9126      9129      9132      9124      9123      9126      9127
      9124      9123      9126      9128      9124      9123      9126      9129
      9125      9123      9126      9127      9125      9123      9126      9128
      9125      9123      9126      9129      9126      9129      9132      9133
      9126      9129      9132      9134      9126      9129      9132      9135
      9127      9126      9129      9130      9127      9126      9129      9131
      9127      9126      9129      9132      9128      9126      9129      9130
      9128      9126      9129      9131      9128      9126      9129      9132
      9129      9132      9135      9136      9129      9132      9135      9137
      9129      9132      9135      9138      9130      9129      9132      9133
      9130      9129      9132      9134      9130      9129      9132      9135
      9131      9129      9132      9133      9131      9129      9132      9134
      9131      9129      9132      9135      9132      9135      9138      9139
      9132      9135      9138      9140      9132      9135      9138      9141
      9133      9132      9135      9136      9133      9132      9135      9137
      9133      9132      9135      9138      9134      9132      9135      9136
      9134      9132      9135      9137      9134      9132      9135      9138
      9135      9138      9141      9142      9135      9138      9141      9143
      9135      9138      9141      9144      9136      9135      9138      9139
      9136      9135      9138      9140      9136      9135      9138      9141
      9137      9135      9138      9139      9137      9135      9138      9140
      9137      9135      9138      9141      9138      9141      9144      9145
      9138      9141      9144      9146      9138      9141      9144      9147
      9139      9138      9141      9142      9139      9138      9141      9143
      9139      9138      9141      9144      9140      9138      9141      9142
      9140      9138      9141      9143      9140      9138      9141      9144
      9142      9141      9144      9145      9142      9141      9144      9146
      9142      9141      9144      9147      9143      9141      9144      9145
      9143      9141      9144      9146      9143      9141      9144      9147
      9148      9151      9154      9155      9148      9151      9154      9156
      9148      9151      9154      9157      9149      9148      9151      9152
      9149      9148      9151      9153      9149      9148      9151      9154
      9150      9148      9151      9152      9150      9148      9151      9153
      9150      9148      9151      9154      9151      9154      9157      9158
      9151      9154      9157      9159      9151      9154      9157      9160
      9152      9151      9154      9155      9152      9151      9154      9156
      9152      9151      9154      9157      9153      9151      9154      9155
      9153      9151      9154      9156      9153      9151      9154      9157
      9154      9157      9160      9161      9154      9157      9160      9162
      9154      9157      9160      9163      9155      9154      9157      9158
      9155      9154      9157      9159      9155      9154      9157      9160
      9156      9154      9157      9158      9156      9154      9157      9159
      9156      9154      9157      9160      9157      9160      9163      9164
      9157      9160      9163      9165      9157      9160      9163      9166
      9158      9157      9160      9161      9158      9157      9160      9162
      9158      9157      9160      9163      9159      9157      9160      9161
      9159      9157      9160      9162      9159      9157      9160      9163
      9160      9163      9166      9167      9160      9163      9166      9168
      9161      9160      9163      9164      9161      9160      9163      9165
      9161      9160      9163      9166      9162      9160      9163      9164
      9162      9160      9163      9165      9162      9160      9163      9166
      9163      9166      9168      9169      9163      9166      9168      9170
      9164      9163      9166      9167      9164      9163      9166      9168
      9165      9163      9166      9167      9165      9163      9166      9168
      9166      9168      9170      9171      9166      9168      9170      9172
      9166      9168      9170      9173      9167      9166      9168      9169
      9167      9166      9168      9170      9168      9170      9173      9174
      9168      9170      9173      9175      9168      9170      9173      9176
      9169      9168      9170      9171      9169      9168      9170      9172
      9169      9168      9170      9173      9170      9173      9176      9177
      9170      9173      9176      9178      9170      9173      9176      9179
      9171      9170      9173      9174      9171      9170      9173      9175
      9171      9170      9173      9176      9172      9170      9173      9174
      9172      9170      9173      9175      9172      9170      9173      9176
      9173      9176      9179      9180      9173      9176      9179      9181
      9173      9176      9179      9182      9174      9173      9176      9177
      9174      9173      9176      9178      9174      9173      9176      9179
      9175      9173      9176      9177      9175      9173      9176      9178
      9175      9173      9176      9179      9176      9179      9182      9183
      9176      9179      9182      9184      9176      9179      9182      9185
      9177      9176      9179      9180      9177      9176      9179      9181
      9177      9176      9179      9182      9178      9176      9179      9180
      9178      9176      9179      9181      9178      9176      9179      9182
      9179      9182      9185      9186      9179      9182      9185      9187
      9179      9182      9185      9188      9180      9179      9182      9183
      9180      9179      9182      9184      9180      9179      9182      9185
      9181      9179      9182      9183      9181      9179      9182      9184
      9181      9179      9182      9185      9182      9185      9188      9189
      9182      9185      9188      9190      9182      9185      9188      9191
      9183      9182      9185      9186      9183      9182      9185      9187
      9183      9182      9185      9188      9184      9182      9185      9186
      9184      9182      9185      9187      9184      9182      9185      9188
      9185      9188      9191      9192      9185      9188      9191      9193
      9185      9188      9191      9194      9186      9185      9188      9189
      9186      9185      9188      9190      9186      9185      9188      9191
      9187      9185      9188      9189      9187      9185      9188      9190
      9187      9185      9188      9191      9189      9188      9191      9192
      9189      9188      9191      9193      9189      9188      9191      9194
      9190      9188      9191      9192      9190      9188      9191      9193
      9190      9188      9191      9194      9195      9196      9211      9212
      9195      9196      9211      9213      9195      9196      9211      9217
      9196      9195      9199      9200      9196      9195      9199      9201
      9196      9195      9199      9202      9196      9195      9203      9204
      9196      9195      9203      9205      9196      9195      9203      9206
      9196      9195      9207      9208      9196      9195      9207      9209
      9196      9195      9207      9210      9196      9211      9217      9214
      9197      9196      9195      9199      9197      9196      9195      9203
      9197      9196      9195      9207      9197      9196      9211      9212
      9197      9196      9211      9213      9197      9196      9211      9217
      9198      9196      9195      9199      9198      9196      9195      9203
      9198      9196      9195      9207      9198      9196      9211      9212
      9198      9196      9211      9213      9198      9196      9211      9217
      9199      9195      9196      9211      9199      9195      9203      9204
      9199      9195      9203      9205      9199      9195      9203      9206
      9199      9195      9207      9208      9199      9195      9207      9209
      9199      9195      9207      9210      9200      9199      9195      9203
      9200      9199      9195      9207      9201      9199      9195      9203
      9201      9199      9195      9207      9202      9199      9195      9203
      9202      9199      9195      9207      9203      9195      9196      9211
      9203      9195      9207      9208      9203      9195      9207      9209
      9203      9195      9207      9210      9204      9203      9195      9207
      9205      9203      9195      9207      9206      9203      9195      9207
      9207      9195      9196      9211      9211      9217      9214      9215
      9211      9217      9214      9216      9211      9217      9214      9218
      9212      9211      9217      9214      9213      9211      9217      9214
      9214      9218      9219      9220      9214      9218      9219      9221
      9214      9218      9219      9222      9215      9214      9218      9219
      9216      9214      9218      9219      9217      9214      9218      9219
      9218      9219      9222      9223      9218      9219      9222      9224
      9218      9219      9222      9230      9219      9222      9224      9225
      9219      9222      9230      9231      9219      9222      9230      9232
      9219      9222      9230      9233      9220      9219      9222      9223
      9220      9219      9222      9224      9220      9219      9222      9230
      9221      9219      9222      9223      9221      9219      9222      9224
      9221      9219      9222      9230      9222      9224      9225      9226
      9222      9224      9225      9227      9222      9230      9233      9234
      9223      9222      9224      9225      9223      9222      9230      9231
      9223      9222      9230      9232      9223      9222      9230      9233
      9224      9222      9230      9231      9224      9222      9230      9232
      9224      9222      9230      9233      9224      9225      9227      9228
      9224      9225      9227      9229      9224      9225      9227      9239
      9225      9224      9222      9230      9225      9227      9239      9240
      9225      9227      9239      9241      9225      9227      9239      9242
      9226      9225      9227      9228      9226      9225      9227      9229
      9226      9225      9227      9239      9227      9239      9242      9243
      9227      9239      9242      9244      9227      9239      9242      9245
      9228      9227      9239      9240      9228      9227      9239      9241
      9228      9227      9239      9242      9229      9227      9239      9240
      9229      9227      9239      9241      9229      9227      9239      9242
      9230      9233      9234      9235      9230      9233      9234      9236
      9231      9230      9233      9234      9232      9230      9233      9234
      9233      9234      9236      9237      9233      9234      9236      9238
      9233      9234      9236      9286      9234      9236      9286      9287
      9234      9236      9286      9288      9234      9236      9286      9289
      9235      9234      9236      9237      9235      9234      9236      9238
      9235      9234      9236      9286      9236      9286      9289      9290
      9236      9286      9289      9291      9236      9286      9289      9292
      9237      9236      9286      9287      9237      9236      9286      9288
      9237      9236      9286      9289      9238      9236      9286      9287
      9238      9236      9286      9288      9238      9236      9286      9289
      9239      9242      9245      9246      9239      9242      9245      9247
      9239      9242      9245      9248      9240      9239      9242      9243
      9240      9239      9242      9244      9240      9239      9242      9245
      9241      9239      9242      9243      9241      9239      9242      9244
      9241      9239      9242      9245      9242      9245      9248      9249
      9242      9245      9248      9250      9242      9245      9248      9251
      9243      9242      9245      9246      9243      9242      9245      9247
      9243      9242      9245      9248      9244      9242      9245      9246
      9244      9242      9245      9247      9244      9242      9245      9248
      9245      9248      9251      9252      9245      9248      9251      9253
      9245      9248      9251      9254      9246      9245      9248      9249
      9246      9245      9248      9250      9246      9245      9248      9251
      9247      9245      9248      9249      9247      9245      9248      9250
      9247      9245      9248      9251      9248      9251      9254      9255
      9248      9251      9254      9256      9248      9251      9254      9257
      9249      9248      9251      9252      9249      9248      9251      9253
      9249      9248      9251      9254      9250      9248      9251      9252
      9250      9248      9251      9253      9250      9248      9251      9254
      9251      9254      9257      9258      9251      9254      9257      9259
      9252      9251      9254      9255      9252      9251      9254      9256
      9252      9251      9254      9257      9253      9251      9254      9255
      9253      9251      9254      9256      9253      9251      9254      9257
      9254      9257      9259      9260      9254      9257      9259      9261
      9255      9254      9257      9258      9255      9254      9257      9259
      9256      9254      9257      9258      9256      9254      9257      9259
      9257      9259      9261      9262      9257      9259      9261      9263
      9257      9259      9261      9264      9258      9257      9259      9260
      9258      9257      9259      9261      9259      9261      9264      9265
      9259      9261      9264      9266      9259      9261      9264      9267
      9260      9259      9261      9262      9260      9259      9261      9263
      9260      9259      9261      9264      9261      9264      9267      9268
      9261      9264      9267      9269      9261      9264      9267      9270
      9262      9261      9264      9265      9262      9261      9264      9266
      9262      9261      9264      9267      9263      9261      9264      9265
      9263      9261      9264      9266      9263      9261      9264      9267
      9264      9267      9270      9271      9264      9267      9270      9272
      9264      9267      9270      9273      9265      9264      9267      9268
      9265      9264      9267      9269      9265      9264      9267      9270
      9266      9264      9267      9268      9266      9264      9267      9269
      9266      9264      9267      9270      9267      9270      9273      9274
      9267      9270      9273      9275      9267      9270      9273      9276
      9268      9267      9270      9271      9268      9267      9270      9272
      9268      9267      9270      9273      9269      9267      9270      9271
      9269      9267      9270      9272      9269      9267      9270      9273
      9270      9273      9276      9277      9270      9273      9276      9278
      9270      9273      9276      9279      9271      9270      9273      9274
      9271      9270      9273      9275      9271      9270      9273      9276
      9272      9270      9273      9274      9272      9270      9273      9275
      9272      9270      9273      9276      9273      9276      9279      9280
      9273      9276      9279      9281      9273      9276      9279      9282
      9274      9273      9276      9277      9274      9273      9276      9278
      9274      9273      9276      9279      9275      9273      9276      9277
      9275      9273      9276      9278      9275      9273      9276      9279
      9276      9279      9282      9283      9276      9279      9282      9284
      9276      9279      9282      9285      9277      9276      9279      9280
      9277      9276      9279      9281      9277      9276      9279      9282
      9278      9276      9279      9280      9278      9276      9279      9281
      9278      9276      9279      9282      9280      9279      9282      9283
      9280      9279      9282      9284      9280      9279      9282      9285
      9281      9279      9282      9283      9281      9279      9282      9284
      9281      9279      9282      9285      9286      9289      9292      9293
      9286      9289      9292      9294      9286      9289      9292      9295
      9287      9286      9289      9290      9287      9286      9289      9291
      9287      9286      9289      9292      9288      9286      9289      9290
      9288      9286      9289      9291      9288      9286      9289      9292
      9289      9292      9295      9296      9289      9292      9295      9297
      9289      9292      9295      9298      9290      9289      9292      9293
      9290      9289      9292      9294      9290      9289      9292      9295
      9291      9289      9292      9293      9291      9289      9292      9294
      9291      9289      9292      9295      9292      9295      9298      9299
      9292      9295      9298      9300      9292      9295      9298      9301
      9293      9292      9295      9296      9293      9292      9295      9297
      9293      9292      9295      9298      9294      9292      9295      9296
      9294      9292      9295      9297      9294      9292      9295      9298
      9295      9298      9301      9302      9295      9298      9301      9303
      9295      9298      9301      9304      9296      9295      9298      9299
      9296      9295      9298      9300      9296      9295      9298      9301
      9297      9295      9298      9299      9297      9295      9298      9300
      9297      9295      9298      9301      9298      9301      9304      9305
      9298      9301      9304      9306      9299      9298      9301      9302
      9299      9298      9301      9303      9299      9298      9301      9304
      9300      9298      9301      9302      9300      9298      9301      9303
      9300      9298      9301      9304      9301      9304      9306      9307
      9301      9304      9306      9308      9302      9301      9304      9305
      9302      9301      9304      9306      9303      9301      9304      9305
      9303      9301      9304      9306      9304      9306      9308      9309
      9304      9306      9308      9310      9304      9306      9308      9311
      9305      9304      9306      9307      9305      9304      9306      9308
      9306      9308      9311      9312      9306      9308      9311      9313
      9306      9308      9311      9314      9307      9306      9308      9309
      9307      9306      9308      9310      9307      9306      9308      9311
      9308      9311      9314      9315      9308      9311      9314      9316
      9308      9311      9314      9317      9309      9308      9311      9312
      9309      9308      9311      9313      9309      9308      9311      9314
      9310      9308      9311      9312      9310      9308      9311      9313
      9310      9308      9311      9314      9311      9314      9317      9318
      9311      9314      9317      9319      9311      9314      9317      9320
      9312      9311      9314      9315      9312      9311      9314      9316
      9312      9311      9314      9317      9313      9311      9314      9315
      9313      9311      9314      9316      9313      9311      9314      9317
      9314      9317      9320      9321      9314      9317      9320      9322
      9314      9317      9320      9323      9315      9314      9317      9318
      9315      9314      9317      9319      9315      9314      9317      9320
      9316      9314      9317      9318      9316      9314      9317      9319
      9316      9314      9317      9320      9317      9320      9323      9324
      9317      9320      9323      9325      9317      9320      9323      9326
      9318      9317      9320      9321      9318      9317      9320      9322
      9318      9317      9320      9323      9319      9317      9320      9321
      9319      9317      9320      9322      9319      9317      9320      9323
      9320      9323      9326      9327      9320      9323      9326      9328
      9320      9323      9326      9329      9321      9320      9323      9324
      9321      9320      9323      9325      9321      9320      9323      9326
      9322      9320      9323      9324      9322      9320      9323      9325
      9322      9320      9323      9326      9323      9326      9329      9330
      9323      9326      9329      9331      9323      9326      9329      9332
      9324      9323      9326      9327      9324      9323      9326      9328
      9324      9323      9326      9329      9325      9323      9326      9327
      9325      9323      9326      9328      9325      9323      9326      9329
      9327      9326      9329      9330      9327      9326      9329      9331
      9327      9326      9329      9332      9328      9326      9329      9330
      9328      9326      9329      9331      9328      9326      9329      9332
      9333      9334      9349      9350      9333      9334      9349      9351
      9333      9334      9349      9355      9334      9333      9337      9338
      9334      9333      9337      9339      9334      9333      9337      9340
      9334      9333      9341      9342      9334      9333      9341      9343
      9334      9333      9341      9344      9334      9333      9345      9346
      9334      9333      9345      9347      9334      9333      9345      9348
      9334      9349      9355      9352      9335      9334      9333      9337
      9335      9334      9333      9341      9335      9334      9333      9345
      9335      9334      9349      9350      9335      9334      9349      9351
      9335      9334      9349      9355      9336      9334      9333      9337
      9336      9334      9333      9341      9336      9334      9333      9345
      9336      9334      9349      9350      9336      9334      9349      9351
      9336      9334      9349      9355      9337      9333      9334      9349
      9337      9333      9341      9342      9337      9333      9341      9343
      9337      9333      9341      9344      9337      9333      9345      9346
      9337      9333      9345      9347      9337      9333      9345      9348
      9338      9337      9333      9341      9338      9337      9333      9345
      9339      9337      9333      9341      9339      9337      9333      9345
      9340      9337      9333      9341      9340      9337      9333      9345
      9341      9333      9334      9349      9341      9333      9345      9346
      9341      9333      9345      9347      9341      9333      9345      9348
      9342      9341      9333      9345      9343      9341      9333      9345
      9344      9341      9333      9345      9345      9333      9334      9349
      9349      9355      9352      9353      9349      9355      9352      9354
      9349      9355      9352      9356      9350      9349      9355      9352
      9351      9349      9355      9352      9352      9356      9357      9358
      9352      9356      9357      9359      9352      9356      9357      9360
      9353      9352      9356      9357      9354      9352      9356      9357
      9355      9352      9356      9357      9356      9357      9360      9361
      9356      9357      9360      9362      9356      9357      9360      9368
      9357      9360      9362      9363      9357      9360      9368      9369
      9357      9360      9368      9370      9357      9360      9368      9371
      9358      9357      9360      9361      9358      9357      9360      9362
      9358      9357      9360      9368      9359      9357      9360      9361
      9359      9357      9360      9362      9359      9357      9360      9368
      9360      9362      9363      9364      9360      9362      9363      9365
      9360      9368      9371      9372      9361      9360      9362      9363
      9361      9360      9368      9369      9361      9360      9368      9370
      9361      9360      9368      9371      9362      9360      9368      9369
      9362      9360      9368      9370      9362      9360      9368      9371
      9362      9363      9365      9366      9362      9363      9365      9367
      9362      9363      9365      9377      9363      9362      9360      9368
      9363      9365      9377      9378      9363      9365      9377      9379
      9363      9365      9377      9380      9364      9363      9365      9366
      9364      9363      9365      9367      9364      9363      9365      9377
      9365      9377      9380      9381      9365      9377      9380      9382
      9365      9377      9380      9383      9366      9365      9377      9378
      9366      9365      9377      9379      9366      9365      9377      9380
      9367      9365      9377      9378      9367      9365      9377      9379
      9367      9365      9377      9380      9368      9371      9372      9373
      9368      9371      9372      9374      9369      9368      9371      9372
      9370      9368      9371      9372      9371      9372      9374      9375
      9371      9372      9374      9376      9371      9372      9374      9424
      9372      9374      9424      9425      9372      9374      9424      9426
      9372      9374      9424      9427      9373      9372      9374      9375
      9373      9372      9374      9376      9373      9372      9374      9424
      9374      9424      9427      9428      9374      9424      9427      9429
      9374      9424      9427      9430      9375      9374      9424      9425
      9375      9374      9424      9426      9375      9374      9424      9427
      9376      9374      9424      9425      9376      9374      9424      9426
      9376      9374      9424      9427      9377      9380      9383      9384
      9377      9380      9383      9385      9377      9380      9383      9386
      9378      9377      9380      9381      9378      9377      9380      9382
      9378      9377      9380      9383      9379      9377      9380      9381
      9379      9377      9380      9382      9379      9377      9380      9383
      9380      9383      9386      9387      9380      9383      9386      9388
      9380      9383      9386      9389      9381      9380      9383      9384
      9381      9380      9383      9385      9381      9380      9383      9386
      9382      9380      9383      9384      9382      9380      9383      9385
      9382      9380      9383      9386      9383      9386      9389      9390
      9383      9386      9389      9391      9383      9386      9389      9392
      9384      9383      9386      9387      9384      9383      9386      9388
      9384      9383      9386      9389      9385      9383      9386      9387
      9385      9383      9386      9388      9385      9383      9386      9389
      9386      9389      9392      9393      9386      9389      9392      9394
      9386      9389      9392      9395      9387      9386      9389      9390
      9387      9386      9389      9391      9387      9386      9389      9392
      9388      9386      9389      9390      9388      9386      9389      9391
      9388      9386      9389      9392      9389      9392      9395      9396
      9389      9392      9395      9397      9390      9389      9392      9393
      9390      9389      9392      9394      9390      9389      9392      9395
      9391      9389      9392      9393      9391      9389      9392      9394
      9391      9389      9392      9395      9392      9395      9397      9398
      9392      9395      9397      9399      9393      9392      9395      9396
      9393      9392      9395      9397      9394      9392      9395      9396
      9394      9392      9395      9397      9395      9397      9399      9400
      9395      9397      9399      9401      9395      9397      9399      9402
      9396      9395      9397      9398      9396      9395      9397      9399
      9397      9399      9402      9403      9397      9399      9402      9404
      9397      9399      9402      9405      9398      9397      9399      9400
      9398      9397      9399      9401      9398      9397      9399      9402
      9399      9402      9405      9406      9399      9402      9405      9407
      9399      9402      9405      9408      9400      9399      9402      9403
      9400      9399      9402      9404      9400      9399      9402      9405
      9401      9399      9402      9403      9401      9399      9402      9404
      9401      9399      9402      9405      9402      9405      9408      9409
      9402      9405      9408      9410      9402      9405      9408      9411
      9403      9402      9405      9406      9403      9402      9405      9407
      9403      9402      9405      9408      9404      9402      9405      9406
      9404      9402      9405      9407      9404      9402      9405      9408
      9405      9408      9411      9412      9405      9408      9411      9413
      9405      9408      9411      9414      9406      9405      9408      9409
      9406      9405      9408      9410      9406      9405      9408      9411
      9407      9405      9408      9409      9407      9405      9408      9410
      9407      9405      9408      9411      9408      9411      9414      9415
      9408      9411      9414      9416      9408      9411      9414      9417
      9409      9408      9411      9412      9409      9408      9411      9413
      9409      9408      9411      9414      9410      9408      9411      9412
      9410      9408      9411      9413      9410      9408      9411      9414
      9411      9414      9417      9418      9411      9414      9417      9419
      9411      9414      9417      9420      9412      9411      9414      9415
      9412      9411      9414      9416      9412      9411      9414      9417
      9413      9411      9414      9415      9413      9411      9414      9416
      9413      9411      9414      9417      9414      9417      9420      9421
      9414      9417      9420      9422      9414      9417      9420      9423
      9415      9414      9417      9418      9415      9414      9417      9419
      9415      9414      9417      9420      9416      9414      9417      9418
      9416      9414      9417      9419      9416      9414      9417      9420
      9418      9417      9420      9421      9418      9417      9420      9422
      9418      9417      9420      9423      9419      9417      9420      9421
      9419      9417      9420      9422      9419      9417      9420      9423
      9424      9427      9430      9431      9424      9427      9430      9432
      9424      9427      9430      9433      9425      9424      9427      9428
      9425      9424      9427      9429      9425      9424      9427      9430
      9426      9424      9427      9428      9426      9424      9427      9429
      9426      9424      9427      9430      9427      9430      9433      9434
      9427      9430      9433      9435      9427      9430      9433      9436
      9428      9427      9430      9431      9428      9427      9430      9432
      9428      9427      9430      9433      9429      9427      9430      9431
      9429      9427      9430      9432      9429      9427      9430      9433
      9430      9433      9436      9437      9430      9433      9436      9438
      9430      9433      9436      9439      9431      9430      9433      9434
      9431      9430      9433      9435      9431      9430      9433      9436
      9432      9430      9433      9434      9432      9430      9433      9435
      9432      9430      9433      9436      9433      9436      9439      9440
      9433      9436      9439      9441      9433      9436      9439      9442
      9434      9433      9436      9437      9434      9433      9436      9438
      9434      9433      9436      9439      9435      9433      9436      9437
      9435      9433      9436      9438      9435      9433      9436      9439
      9436      9439      9442      9443      9436      9439      9442      9444
      9437      9436      9439      9440      9437      9436      9439      9441
      9437      9436      9439      9442      9438      9436      9439      9440
      9438      9436      9439      9441      9438      9436      9439      9442
      9439      9442      9444      9445      9439      9442      9444      9446
      9440      9439      9442      9443      9440      9439      9442      9444
      9441      9439      9442      9443      9441      9439      9442      9444
      9442      9444      9446      9447      9442      9444      9446      9448
      9442      9444      9446      9449      9443      9442      9444      9445
      9443      9442      9444      9446      9444      9446      9449      9450
      9444      9446      9449      9451      9444      9446      9449      9452
      9445      9444      9446      9447      9445      9444      9446      9448
      9445      9444      9446      9449      9446      9449      9452      9453
      9446      9449      9452      9454      9446      9449      9452      9455
      9447      9446      9449      9450      9447      9446      9449      9451
      9447      9446      9449      9452      9448      9446      9449      9450
      9448      9446      9449      9451      9448      9446      9449      9452
      9449      9452      9455      9456      9449      9452      9455      9457
      9449      9452      9455      9458      9450      9449      9452      9453
      9450      9449      9452      9454      9450      9449      9452      9455
      9451      9449      9452      9453      9451      9449      9452      9454
      9451      9449      9452      9455      9452      9455      9458      9459
      9452      9455      9458      9460      9452      9455      9458      9461
      9453      9452      9455      9456      9453      9452      9455      9457
      9453      9452      9455      9458      9454      9452      9455      9456
      9454      9452      9455      9457      9454      9452      9455      9458
      9455      9458      9461      9462      9455      9458      9461      9463
      9455      9458      9461      9464      9456      9455      9458      9459
      9456      9455      9458      9460      9456      9455      9458      9461
      9457      9455      9458      9459      9457      9455      9458      9460
      9457      9455      9458      9461      9458      9461      9464      9465
      9458      9461      9464      9466      9458      9461      9464      9467
      9459      9458      9461      9462      9459      9458      9461      9463
      9459      9458      9461      9464      9460      9458      9461      9462
      9460      9458      9461      9463      9460      9458      9461      9464
      9461      9464      9467      9468      9461      9464      9467      9469
      9461      9464      9467      9470      9462      9461      9464      9465
      9462      9461      9464      9466      9462      9461      9464      9467
      9463      9461      9464      9465      9463      9461      9464      9466
      9463      9461      9464      9467      9465      9464      9467      9468
      9465      9464      9467      9469      9465      9464      9467      9470
      9466      9464      9467      9468      9466      9464      9467      9469
      9466      9464      9467      9470      9471      9472      9487      9488
      9471      9472      9487      9489      9471      9472      9487      9493
      9472      9471      9475      9476      9472      9471      9475      9477
      9472      9471      9475      9478      9472      9471      9479      9480
      9472      9471      9479      9481      9472      9471      9479      9482
      9472      9471      9483      9484      9472      9471      9483      9485
      9472      9471      9483      9486      9472      9487      9493      9490
      9473      9472      9471      9475      9473      9472      9471      9479
      9473      9472      9471      9483      9473      9472      9487      9488
      9473      9472      9487      9489      9473      9472      9487      9493
      9474      9472      9471      9475      9474      9472      9471      9479
      9474      9472      9471      9483      9474      9472      9487      9488
      9474      9472      9487      9489      9474      9472      9487      9493
      9475      9471      9472      9487      9475      9471      9479      9480
      9475      9471      9479      9481      9475      9471      9479      9482
      9475      9471      9483      9484      9475      9471      9483      9485
      9475      9471      9483      9486      9476      9475      9471      9479
      9476      9475      9471      9483      9477      9475      9471      9479
      9477      9475      9471      9483      9478      9475      9471      9479
      9478      9475      9471      9483      9479      9471      9472      9487
      9479      9471      9483      9484      9479      9471      9483      9485
      9479      9471      9483      9486      9480      9479      9471      9483
      9481      9479      9471      9483      9482      9479      9471      9483
      9483      9471      9472      9487      9487      9493      9490      9491
      9487      9493      9490      9492      9487      9493      9490      9494
      9488      9487      9493      9490      9489      9487      9493      9490
      9490      9494      9495      9496      9490      9494      9495      9497
      9490      9494      9495      9498      9491      9490      9494      9495
      9492      9490      9494      9495      9493      9490      9494      9495
      9494      9495      9498      9499      9494      9495      9498      9500
      9494      9495      9498      9506      9495      9498      9500      9501
      9495      9498      9506      9507      9495      9498      9506      9508
      9495      9498      9506      9509      9496      9495      9498      9499
      9496      9495      9498      9500      9496      9495      9498      9506
      9497      9495      9498      9499      9497      9495      9498      9500
      9497      9495      9498      9506      9498      9500      9501      9502
      9498      9500      9501      9503      9498      9506      9509      9510
      9499      9498      9500      9501      9499      9498      9506      9507
      9499      9498      9506      9508      9499      9498      9506      9509
      9500      9498      9506      9507      9500      9498      9506      9508
      9500      9498      9506      9509      9500      9501      9503      9504
      9500      9501      9503      9505      9500      9501      9503      9515
      9501      9500      9498      9506      9501      9503      9515      9516
      9501      9503      9515      9517      9501      9503      9515      9518
      9502      9501      9503      9504      9502      9501      9503      9505
      9502      9501      9503      9515      9503      9515      9518      9519
      9503      9515      9518      9520      9503      9515      9518      9521
      9504      9503      9515      9516      9504      9503      9515      9517
      9504      9503      9515      9518      9505      9503      9515      9516
      9505      9503      9515      9517      9505      9503      9515      9518
      9506      9509      9510      9511      9506      9509      9510      9512
      9507      9506      9509      9510      9508      9506      9509      9510
      9509      9510      9512      9513      9509      9510      9512      9514
      9509      9510      9512      9562      9510      9512      9562      9563
      9510      9512      9562      9564      9510      9512      9562      9565
      9511      9510      9512      9513      9511      9510      9512      9514
      9511      9510      9512      9562      9512      9562      9565      9566
      9512      9562      9565      9567      9512      9562      9565      9568
      9513      9512      9562      9563      9513      9512      9562      9564
      9513      9512      9562      9565      9514      9512      9562      9563
      9514      9512      9562      9564      9514      9512      9562      9565
      9515      9518      9521      9522      9515      9518      9521      9523
      9515      9518      9521      9524      9516      9515      9518      9519
      9516      9515      9518      9520      9516      9515      9518      9521
      9517      9515      9518      9519      9517      9515      9518      9520
      9517      9515      9518      9521      9518      9521      9524      9525
      9518      9521      9524      9526      9518      9521      9524      9527
      9519      9518      9521      9522      9519      9518      9521      9523
      9519      9518      9521      9524      9520      9518      9521      9522
      9520      9518      9521      9523      9520      9518      9521      9524
      9521      9524      9527      9528      9521      9524      9527      9529
      9521      9524      9527      9530      9522      9521      9524      9525
      9522      9521      9524      9526      9522      9521      9524      9527
      9523      9521      9524      9525      9523      9521      9524      9526
      9523      9521      9524      9527      9524      9527      9530      9531
      9524      9527      9530      9532      9524      9527      9530      9533
      9525      9524      9527      9528      9525      9524      9527      9529
      9525      9524      9527      9530      9526      9524      9527      9528
      9526      9524      9527      9529      9526      9524      9527      9530
      9527      9530      9533      9534      9527      9530      9533      9535
      9528      9527      9530      9531      9528      9527      9530      9532
      9528      9527      9530      9533      9529      9527      9530      9531
      9529      9527      9530      9532      9529      9527      9530      9533
      9530      9533      9535      9536      9530      9533      9535      9537
      9531      9530      9533      9534      9531      9530      9533      9535
      9532      9530      9533      9534      9532      9530      9533      9535
      9533      9535      9537      9538      9533      9535      9537      9539
      9533      9535      9537      9540      9534      9533      9535      9536
      9534      9533      9535      9537      9535      9537      9540      9541
      9535      9537      9540      9542      9535      9537      9540      9543
      9536      9535      9537      9538      9536      9535      9537      9539
      9536      9535      9537      9540      9537      9540      9543      9544
      9537      9540      9543      9545      9537      9540      9543      9546
      9538      9537      9540      9541      9538      9537      9540      9542
      9538      9537      9540      9543      9539      9537      9540      9541
      9539      9537      9540      9542      9539      9537      9540      9543
      9540      9543      9546      9547      9540      9543      9546      9548
      9540      9543      9546      9549      9541      9540      9543      9544
      9541      9540      9543      9545      9541      9540      9543      9546
      9542      9540      9543      9544      9542      9540      9543      9545
      9542      9540      9543      9546      9543      9546      9549      9550
      9543      9546      9549      9551      9543      9546      9549      9552
      9544      9543      9546      9547      9544      9543      9546      9548
      9544      9543      9546      9549      9545      9543      9546      9547
      9545      9543      9546      9548      9545      9543      9546      9549
      9546      9549      9552      9553      9546      9549      9552      9554
      9546      9549      9552      9555      9547      9546      9549      9550
      9547      9546      9549      9551      9547      9546      9549      9552
      9548      9546      9549      9550      9548      9546      9549      9551
      9548      9546      9549      9552      9549      9552      9555      9556
      9549      9552      9555      9557      9549      9552      9555      9558
      9550      9549      9552      9553      9550      9549      9552      9554
      9550      9549      9552      9555      9551      9549      9552      9553
      9551      9549      9552      9554      9551      9549      9552      9555
      9552      9555      9558      9559      9552      9555      9558      9560
      9552      9555      9558      9561      9553      9552      9555      9556
      9553      9552      9555      9557      9553      9552      9555      9558
      9554      9552      9555      9556      9554      9552      9555      9557
      9554      9552      9555      9558      9556      9555      9558      9559
      9556      9555      9558      9560      9556      9555      9558      9561
      9557      9555      9558      9559      9557      9555      9558      9560
      9557      9555      9558      9561      9562      9565      9568      9569
      9562      9565      9568      9570      9562      9565      9568      9571
      9563      9562      9565      9566      9563      9562      9565      9567
      9563      9562      9565      9568      9564      9562      9565      9566
      9564      9562      9565      9567      9564      9562      9565      9568
      9565      9568      9571      9572      9565      9568      9571      9573
      9565      9568      9571      9574      9566      9565      9568      9569
      9566      9565      9568      9570      9566      9565      9568      9571
      9567      9565      9568      9569      9567      9565      9568      9570
      9567      9565      9568      9571      9568      9571      9574      9575
      9568      9571      9574      9576      9568      9571      9574      9577
      9569      9568      9571      9572      9569      9568      9571      9573
      9569      9568      9571      9574      9570      9568      9571      9572
      9570      9568      9571      9573      9570      9568      9571      9574
      9571      9574      9577      9578      9571      9574      9577      9579
      9571      9574      9577      9580      9572      9571      9574      9575
      9572      9571      9574      9576      9572      9571      9574      9577
      9573      9571      9574      9575      9573      9571      9574      9576
      9573      9571      9574      9577      9574      9577      9580      9581
      9574      9577      9580      9582      9575      9574      9577      9578
      9575      9574      9577      9579      9575      9574      9577      9580
      9576      9574      9577      9578      9576      9574      9577      9579
      9576      9574      9577      9580      9577      9580      9582      9583
      9577      9580      9582      9584      9578      9577      9580      9581
      9578      9577      9580      9582      9579      9577      9580      9581
      9579      9577      9580      9582      9580      9582      9584      9585
      9580      9582      9584      9586      9580      9582      9584      9587
      9581      9580      9582      9583      9581      9580      9582      9584
      9582      9584      9587      9588      9582      9584      9587      9589
      9582      9584      9587      9590      9583      9582      9584      9585
      9583      9582      9584      9586      9583      9582      9584      9587
      9584      9587      9590      9591      9584      9587      9590      9592
      9584      9587      9590      9593      9585      9584      9587      9588
      9585      9584      9587      9589      9585      9584      9587      9590
      9586      9584      9587      9588      9586      9584      9587      9589
      9586      9584      9587      9590      9587      9590      9593      9594
      9587      9590      9593      9595      9587      9590      9593      9596
      9588      9587      9590      9591      9588      9587      9590      9592
      9588      9587      9590      9593      9589      9587      9590      9591
      9589      9587      9590      9592      9589      9587      9590      9593
      9590      9593      9596      9597      9590      9593      9596      9598
      9590      9593      9596      9599      9591      9590      9593      9594
      9591      9590      9593      9595      9591      9590      9593      9596
      9592      9590      9593      9594      9592      9590      9593      9595
      9592      9590      9593      9596      9593      9596      9599      9600
      9593      9596      9599      9601      9593      9596      9599      9602
      9594      9593      9596      9597      9594      9593      9596      9598
      9594      9593      9596      9599      9595      9593      9596      9597
      9595      9593      9596      9598      9595      9593      9596      9599
      9596      9599      9602      9603      9596      9599      9602      9604
      9596      9599      9602      9605      9597      9596      9599      9600
      9597      9596      9599      9601      9597      9596      9599      9602
      9598      9596      9599      9600      9598      9596      9599      9601
      9598      9596      9599      9602      9599      9602      9605      9606
      9599      9602      9605      9607      9599      9602      9605      9608
      9600      9599      9602      9603      9600      9599      9602      9604
      9600      9599      9602      9605      9601      9599      9602      9603
      9601      9599      9602      9604      9601      9599      9602      9605
      9603      9602      9605      9606      9603      9602      9605      9607
      9603      9602      9605      9608      9604      9602      9605      9606
      9604      9602      9605      9607      9604      9602      9605      9608
      9609      9610      9625      9626      9609      9610      9625      9627
      9609      9610      9625      9631      9610      9609      9613      9614
      9610      9609      9613      9615      9610      9609      9613      9616
      9610      9609      9617      9618      9610      9609      9617      9619
      9610      9609      9617      9620      9610      9609      9621      9622
      9610      9609      9621      9623      9610      9609      9621      9624
      9610      9625      9631      9628      9611      9610      9609      9613
      9611      9610      9609      9617      9611      9610      9609      9621
      9611      9610      9625      9626      9611      9610      9625      9627
      9611      9610      9625      9631      9612      9610      9609      9613
      9612      9610      9609      9617      9612      9610      9609      9621
      9612      9610      9625      9626      9612      9610      9625      9627
      9612      9610      9625      9631      9613      9609      9610      9625
      9613      9609      9617      9618      9613      9609      9617      9619
      9613      9609      9617      9620      9613      9609      9621      9622
      9613      9609      9621      9623      9613      9609      9621      9624
      9614      9613      9609      9617      9614      9613      9609      9621
      9615      9613      9609      9617      9615      9613      9609      9621
      9616      9613      9609      9617      9616      9613      9609      9621
      9617      9609      9610      9625      9617      9609      9621      9622
      9617      9609      9621      9623      9617      9609      9621      9624
      9618      9617      9609      9621      9619      9617      9609      9621
      9620      9617      9609      9621      9621      9609      9610      9625
      9625      9631      9628      9629      9625      9631      9628      9630
      9625      9631      9628      9632      9626      9625      9631      9628
      9627      9625      9631      9628      9628      9632      9633      9634
      9628      9632      9633      9635      9628      9632      9633      9636
      9629      9628      9632      9633      9630      9628      9632      9633
      9631      9628      9632      9633      9632      9633      9636      9637
      9632      9633      9636      9638      9632      9633      9636      9644
      9633      9636      9638      9639      9633      9636      9644      9645
      9633      9636      9644      9646      9633      9636      9644      9647
      9634      9633      9636      9637      9634      9633      9636      9638
      9634      9633      9636      9644      9635      9633      9636      9637
      9635      9633      9636      9638      9635      9633      9636      9644
      9636      9638      9639      9640      9636      9638      9639      9641
      9636      9644      9647      9648      9637      9636      9638      9639
      9637      9636      9644      9645      9637      9636      9644      9646
      9637      9636      9644      9647      9638      9636      9644      9645
      9638      9636      9644      9646      9638      9636      9644      9647
      9638      9639      9641      9642      9638      9639      9641      9643
      9638      9639      9641      9653      9639      9638      9636      9644
      9639      9641      9653      9654      9639      9641      9653      9655
      9639      9641      9653      9656      9640      9639      9641      9642
      9640      9639      9641      9643      9640      9639      9641      9653
      9641      9653      9656      9657      9641      9653      9656      9658
      9641      9653      9656      9659      9642      9641      9653      9654
      9642      9641      9653      9655      9642      9641      9653      9656
      9643      9641      9653      9654      9643      9641      9653      9655
      9643      9641      9653      9656      9644      9647      9648      9649
      9644      9647      9648      9650      9645      9644      9647      9648
      9646      9644      9647      9648      9647      9648      9650      9651
      9647      9648      9650      9652      9647      9648      9650      9700
      9648      9650      9700      9701      9648      9650      9700      9702
      9648      9650      9700      9703      9649      9648      9650      9651
      9649      9648      9650      9652      9649      9648      9650      9700
      9650      9700      9703      9704      9650      9700      9703      9705
      9650      9700      9703      9706      9651      9650      9700      9701
      9651      9650      9700      9702      9651      9650      9700      9703
      9652      9650      9700      9701      9652      9650      9700      9702
      9652      9650      9700      9703      9653      9656      9659      9660
      9653      9656      9659      9661      9653      9656      9659      9662
      9654      9653      9656      9657      9654      9653      9656      9658
      9654      9653      9656      9659      9655      9653      9656      9657
      9655      9653      9656      9658      9655      9653      9656      9659
      9656      9659      9662      9663      9656      9659      9662      9664
      9656      9659      9662      9665      9657      9656      9659      9660
      9657      9656      9659      9661      9657      9656      9659      9662
      9658      9656      9659      9660      9658      9656      9659      9661
      9658      9656      9659      9662      9659      9662      9665      9666
      9659      9662      9665      9667      9659      9662      9665      9668
      9660      9659      9662      9663      9660      9659      9662      9664
      9660      9659      9662      9665      9661      9659      9662      9663
      9661      9659      9662      9664      9661      9659      9662      9665
      9662      9665      9668      9669      9662      9665      9668      9670
      9662      9665      9668      9671      9663      9662      9665      9666
      9663      9662      9665      9667      9663      9662      9665      9668
      9664      9662      9665      9666      9664      9662      9665      9667
      9664      9662      9665      9668      9665      9668      9671      9672
      9665      9668      9671      9673      9666      9665      9668      9669
      9666      9665      9668      9670      9666      9665      9668      9671
      9667      9665      9668      9669      9667      9665      9668      9670
      9667      9665      9668      9671      9668      9671      9673      9674
      9668      9671      9673      9675      9669      9668      9671      9672
      9669      9668      9671      9673      9670      9668      9671      9672
      9670      9668      9671      9673      9671      9673      9675      9676
      9671      9673      9675      9677      9671      9673      9675      9678
      9672      9671      9673      9674      9672      9671      9673      9675
      9673      9675      9678      9679      9673      9675      9678      9680
      9673      9675      9678      9681      9674      9673      9675      9676
      9674      9673      9675      9677      9674      9673      9675      9678
      9675      9678      9681      9682      9675      9678      9681      9683
      9675      9678      9681      9684      9676      9675      9678      9679
      9676      9675      9678      9680      9676      9675      9678      9681
      9677      9675      9678      9679      9677      9675      9678      9680
      9677      9675      9678      9681      9678      9681      9684      9685
      9678      9681      9684      9686      9678      9681      9684      9687
      9679      9678      9681      9682      9679      9678      9681      9683
      9679      9678      9681      9684      9680      9678      9681      9682
      9680      9678      9681      9683      9680      9678      9681      9684
      9681      9684      9687      9688      9681      9684      9687      9689
      9681      9684      9687      9690      9682      9681      9684      9685
      9682      9681      9684      9686      9682      9681      9684      9687
      9683      9681      9684      9685      9683      9681      9684      9686
      9683      9681      9684      9687      9684      9687      9690      9691
      9684      9687      9690      9692      9684      9687      9690      9693
      9685      9684      9687      9688      9685      9684      9687      9689
      9685      9684      9687      9690      9686      9684      9687      9688
      9686      9684      9687      9689      9686      9684      9687      9690
      9687      9690      9693      9694      9687      9690      9693      9695
      9687      9690      9693      9696      9688      9687      9690      9691
      9688      9687      9690      9692      9688      9687      9690      9693
      9689      9687      9690      9691      9689      9687      9690      9692
      9689      9687      9690      9693      9690      9693      9696      9697
      9690      9693      9696      9698      9690      9693      9696      9699
      9691      9690      9693      9694      9691      9690      9693      9695
      9691      9690      9693      9696      9692      9690      9693      9694
      9692      9690      9693      9695      9692      9690      9693      9696
      9694      9693      9696      9697      9694      9693      9696      9698
      9694      9693      9696      9699      9695      9693      9696      9697
      9695      9693      9696      9698      9695      9693      9696      9699
      9700      9703      9706      9707      9700      9703      9706      9708
      9700      9703      9706      9709      9701      9700      9703      9704
      9701      9700      9703      9705      9701      9700      9703      9706
      9702      9700      9703      9704      9702      9700      9703      9705
      9702      9700      9703      9706      9703      9706      9709      9710
      9703      9706      9709      9711      9703      9706      9709      9712
      9704      9703      9706      9707      9704      9703      9706      9708
      9704      9703      9706      9709      9705      9703      9706      9707
      9705      9703      9706      9708      9705      9703      9706      9709
      9706      9709      9712      9713      9706      9709      9712      9714
      9706      9709      9712      9715      9707      9706      9709      9710
      9707      9706      9709      9711      9707      9706      9709      9712
      9708      9706      9709      9710      9708      9706      9709      9711
      9708      9706      9709      9712      9709      9712      9715      9716
      9709      9712      9715      9717      9709      9712      9715      9718
      9710      9709      9712      9713      9710      9709      9712      9714
      9710      9709      9712      9715      9711      9709      9712      9713
      9711      9709      9712      9714      9711      9709      9712      9715
      9712      9715      9718      9719      9712      9715      9718      9720
      9713      9712      9715      9716      9713      9712      9715      9717
      9713      9712      9715      9718      9714      9712      9715      9716
      9714      9712      9715      9717      9714      9712      9715      9718
      9715      9718      9720      9721      9715      9718      9720      9722
      9716      9715      9718      9719      9716      9715      9718      9720
      9717      9715      9718      9719      9717      9715      9718      9720
      9718      9720      9722      9723      9718      9720      9722      9724
      9718      9720      9722      9725      9719      9718      9720      9721
      9719      9718      9720      9722      9720      9722      9725      9726
      9720      9722      9725      9727      9720      9722      9725      9728
      9721      9720      9722      9723      9721      9720      9722      9724
      9721      9720      9722      9725      9722      9725      9728      9729
      9722      9725      9728      9730      9722      9725      9728      9731
      9723      9722      9725      9726      9723      9722      9725      9727
      9723      9722      9725      9728      9724      9722      9725      9726
      9724      9722      9725      9727      9724      9722      9725      9728
      9725      9728      9731      9732      9725      9728      9731      9733
      9725      9728      9731      9734      9726      9725      9728      9729
      9726      9725      9728      9730      9726      9725      9728      9731
      9727      9725      9728      9729      9727      9725      9728      9730
      9727      9725      9728      9731      9728      9731      9734      9735
      9728      9731      9734      9736      9728      9731      9734      9737
      9729      9728      9731      9732      9729      9728      9731      9733
      9729      9728      9731      9734      9730      9728      9731      9732
      9730      9728      9731      9733      9730      9728      9731      9734
      9731      9734      9737      9738      9731      9734      9737      9739
      9731      9734      9737      9740      9732      9731      9734      9735
      9732      9731      9734      9736      9732      9731      9734      9737
      9733      9731      9734      9735      9733      9731      9734      9736
      9733      9731      9734      9737      9734      9737      9740      9741
      9734      9737      9740      9742      9734      9737      9740      9743
      9735      9734      9737      9738      9735      9734      9737      9739
      9735      9734      9737      9740      9736      9734      9737      9738
      9736      9734      9737      9739      9736      9734      9737      9740
      9737      9740      9743      9744      9737      9740      9743      9745
      9737      9740      9743      9746      9738      9737      9740      9741
      9738      9737      9740      9742      9738      9737      9740      9743
      9739      9737      9740      9741      9739      9737      9740      9742
      9739      9737      9740      9743      9741      9740      9743      9744
      9741      9740      9743      9745      9741      9740      9743      9746
      9742      9740      9743      9744      9742      9740      9743      9745
      9742      9740      9743      9746      9747      9748      9763      9764
      9747      9748      9763      9765      9747      9748      9763      9769
      9748      9747      9751      9752      9748      9747      9751      9753
      9748      9747      9751      9754      9748      9747      9755      9756
      9748      9747      9755      9757      9748      9747      9755      9758
      9748      9747      9759      9760      9748      9747      9759      9761
      9748      9747      9759      9762      9748      9763      9769      9766
      9749      9748      9747      9751      9749      9748      9747      9755
      9749      9748      9747      9759      9749      9748      9763      9764
      9749      9748      9763      9765      9749      9748      9763      9769
      9750      9748      9747      9751      9750      9748      9747      9755
      9750      9748      9747      9759      9750      9748      9763      9764
      9750      9748      9763      9765      9750      9748      9763      9769
      9751      9747      9748      9763      9751      9747      9755      9756
      9751      9747      9755      9757      9751      9747      9755      9758
      9751      9747      9759      9760      9751      9747      9759      9761
      9751      9747      9759      9762      9752      9751      9747      9755
      9752      9751      9747      9759      9753      9751      9747      9755
      9753      9751      9747      9759      9754      9751      9747      9755
      9754      9751      9747      9759      9755      9747      9748      9763
      9755      9747      9759      9760      9755      9747      9759      9761
      9755      9747      9759      9762      9756      9755      9747      9759
      9757      9755      9747      9759      9758      9755      9747      9759
      9759      9747      9748      9763      9763      9769      9766      9767
      9763      9769      9766      9768      9763      9769      9766      9770
      9764      9763      9769      9766      9765      9763      9769      9766
      9766      9770      9771      9772      9766      9770      9771      9773
      9766      9770      9771      9774      9767      9766      9770      9771
      9768      9766      9770      9771      9769      9766      9770      9771
      9770      9771      9774      9775      9770      9771      9774      9776
      9770      9771      9774      9782      9771      9774      9776      9777
      9771      9774      9782      9783      9771      9774      9782      9784
      9771      9774      9782      9785      9772      9771      9774      9775
      9772      9771      9774      9776      9772      9771      9774      9782
      9773      9771      9774      9775      9773      9771      9774      9776
      9773      9771      9774      9782      9774      9776      9777      9778
      9774      9776      9777      9779      9774      9782      9785      9786
      9775      9774      9776      9777      9775      9774      9782      9783
      9775      9774      9782      9784      9775      9774      9782      9785
      9776      9774      9782      9783      9776      9774      9782      9784
      9776      9774      9782      9785      9776      9777      9779      9780
      9776      9777      9779      9781      9776      9777      9779      9791
      9777      9776      9774      9782      9777      9779      9791      9792
      9777      9779      9791      9793      9777      9779      9791      9794
      9778      9777      9779      9780      9778      9777      9779      9781
      9778      9777      9779      9791      9779      9791      9794      9795
      9779      9791      9794      9796      9779      9791      9794      9797
      9780      9779      9791      9792      9780      9779      9791      9793
      9780      9779      9791      9794      9781      9779      9791      9792
      9781      9779      9791      9793      9781      9779      9791      9794
      9782      9785      9786      9787      9782      9785      9786      9788
      9783      9782      9785      9786      9784      9782      9785      9786
      9785      9786      9788      9789      9785      9786      9788      9790
      9785      9786      9788      9838      9786      9788      9838      9839
      9786      9788      9838      9840      9786      9788      9838      9841
      9787      9786      9788      9789      9787      9786      9788      9790
      9787      9786      9788      9838      9788      9838      9841      9842
      9788      9838      9841      9843      9788      9838      9841      9844
      9789      9788      9838      9839      9789      9788      9838      9840
      9789      9788      9838      9841      9790      9788      9838      9839
      9790      9788      9838      9840      9790      9788      9838      9841
      9791      9794      9797      9798      9791      9794      9797      9799
      9791      9794      9797      9800      9792      9791      9794      9795
      9792      9791      9794      9796      9792      9791      9794      9797
      9793      9791      9794      9795      9793      9791      9794      9796
      9793      9791      9794      9797      9794      9797      9800      9801
      9794      9797      9800      9802      9794      9797      9800      9803
      9795      9794      9797      9798      9795      9794      9797      9799
      9795      9794      9797      9800      9796      9794      9797      9798
      9796      9794      9797      9799      9796      9794      9797      9800
      9797      9800      9803      9804      9797      9800      9803      9805
      9797      9800      9803      9806      9798      9797      9800      9801
      9798      9797      9800      9802      9798      9797      9800      9803
      9799      9797      9800      9801      9799      9797      9800      9802
      9799      9797      9800      9803      9800      9803      9806      9807
      9800      9803      9806      9808      9800      9803      9806      9809
      9801      9800      9803      9804      9801      9800      9803      9805
      9801      9800      9803      9806      9802      9800      9803      9804
      9802      9800      9803      9805      9802      9800      9803      9806
      9803      9806      9809      9810      9803      9806      9809      9811
      9804      9803      9806      9807      9804      9803      9806      9808
      9804      9803      9806      9809      9805      9803      9806      9807
      9805      9803      9806      9808      9805      9803      9806      9809
      9806      9809      9811      9812      9806      9809      9811      9813
      9807      9806      9809      9810      9807      9806      9809      9811
      9808      9806      9809      9810      9808      9806      9809      9811
      9809      9811      9813      9814      9809      9811      9813      9815
      9809      9811      9813      9816      9810      9809      9811      9812
      9810      9809      9811      9813      9811      9813      9816      9817
      9811      9813      9816      9818      9811      9813      9816      9819
      9812      9811      9813      9814      9812      9811      9813      9815
      9812      9811      9813      9816      9813      9816      9819      9820
      9813      9816      9819      9821      9813      9816      9819      9822
      9814      9813      9816      9817      9814      9813      9816      9818
      9814      9813      9816      9819      9815      9813      9816      9817
      9815      9813      9816      9818      9815      9813      9816      9819
      9816      9819      9822      9823      9816      9819      9822      9824
      9816      9819      9822      9825      9817      9816      9819      9820
      9817      9816      9819      9821      9817      9816      9819      9822
      9818      9816      9819      9820      9818      9816      9819      9821
      9818      9816      9819      9822      9819      9822      9825      9826
      9819      9822      9825      9827      9819      9822      9825      9828
      9820      9819      9822      9823      9820      9819      9822      9824
      9820      9819      9822      9825      9821      9819      9822      9823
      9821      9819      9822      9824      9821      9819      9822      9825
      9822      9825      9828      9829      9822      9825      9828      9830
      9822      9825      9828      9831      9823      9822      9825      9826
      9823      9822      9825      9827      9823      9822      9825      9828
      9824      9822      9825      9826      9824      9822      9825      9827
      9824      9822      9825      9828      9825      9828      9831      9832
      9825      9828      9831      9833      9825      9828      9831      9834
      9826      9825      9828      9829      9826      9825      9828      9830
      9826      9825      9828      9831      9827      9825      9828      9829
      9827      9825      9828      9830      9827      9825      9828      9831
      9828      9831      9834      9835      9828      9831      9834      9836
      9828      9831      9834      9837      9829      9828      9831      9832
      9829      9828      9831      9833      9829      9828      9831      9834
      9830      9828      9831      9832      9830      9828      9831      9833
      9830      9828      9831      9834      9832      9831      9834      9835
      9832      9831      9834      9836      9832      9831      9834      9837
      9833      9831      9834      9835      9833      9831      9834      9836
      9833      9831      9834      9837      9838      9841      9844      9845
      9838      9841      9844      9846      9838      9841      9844      9847
      9839      9838      9841      9842      9839      9838      9841      9843
      9839      9838      9841      9844      9840      9838      9841      9842
      9840      9838      9841      9843      9840      9838      9841      9844
      9841      9844      9847      9848      9841      9844      9847      9849
      9841      9844      9847      9850      9842      9841      9844      9845
      9842      9841      9844      9846      9842      9841      9844      9847
      9843      9841      9844      9845      9843      9841      9844      9846
      9843      9841      9844      9847      9844      9847      9850      9851
      9844      9847      9850      9852      9844      9847      9850      9853
      9845      9844      9847      9848      9845      9844      9847      9849
      9845      9844      9847      9850      9846      9844      9847      9848
      9846      9844      9847      9849      9846      9844      9847      9850
      9847      9850      9853      9854      9847      9850      9853      9855
      9847      9850      9853      9856      9848      9847      9850      9851
      9848      9847      9850      9852      9848      9847      9850      9853
      9849      9847      9850      9851      9849      9847      9850      9852
      9849      9847      9850      9853      9850      9853      9856      9857
      9850      9853      9856      9858      9851      9850      9853      9854
      9851      9850      9853      9855      9851      9850      9853      9856
      9852      9850      9853      9854      9852      9850      9853      9855
      9852      9850      9853      9856      9853      9856      9858      9859
      9853      9856      9858      9860      9854      9853      9856      9857
      9854      9853      9856      9858      9855      9853      9856      9857
      9855      9853      9856      9858      9856      9858      9860      9861
      9856      9858      9860      9862      9856      9858      9860      9863
      9857      9856      9858      9859      9857      9856      9858      9860
      9858      9860      9863      9864      9858      9860      9863      9865
      9858      9860      9863      9866      9859      9858      9860      9861
      9859      9858      9860      9862      9859      9858      9860      9863
      9860      9863      9866      9867      9860      9863      9866      9868
      9860      9863      9866      9869      9861      9860      9863      9864
      9861      9860      9863      9865      9861      9860      9863      9866
      9862      9860      9863      9864      9862      9860      9863      9865
      9862      9860      9863      9866      9863      9866      9869      9870
      9863      9866      9869      9871      9863      9866      9869      9872
      9864      9863      9866      9867      9864      9863      9866      9868
      9864      9863      9866      9869      9865      9863      9866      9867
      9865      9863      9866      9868      9865      9863      9866      9869
      9866      9869      9872      9873      9866      9869      9872      9874
      9866      9869      9872      9875      9867      9866      9869      9870
      9867      9866      9869      9871      9867      9866      9869      9872
      9868      9866      9869      9870      9868      9866      9869      9871
      9868      9866      9869      9872      9869      9872      9875      9876
      9869      9872      9875      9877      9869      9872      9875      9878
      9870      9869      9872      9873      9870      9869      9872      9874
      9870      9869      9872      9875      9871      9869      9872      9873
      9871      9869      9872      9874      9871      9869      9872      9875
      9872      9875      9878      9879      9872      9875      9878      9880
      9872      9875      9878      9881      9873      9872      9875      9876
      9873      9872      9875      9877      9873      9872      9875      9878
      9874      9872      9875      9876      9874      9872      9875      9877
      9874      9872      9875      9878      9875      9878      9881      9882
      9875      9878      9881      9883      9875      9878      9881      9884
      9876      9875      9878      9879      9876      9875      9878      9880
      9876      9875      9878      9881      9877      9875      9878      9879
      9877      9875      9878      9880      9877      9875      9878      9881
      9879      9878      9881      9882      9879      9878      9881      9883
      9879      9878      9881      9884      9880      9878      9881      9882
      9880      9878      9881      9883      9880      9878      9881      9884
      9885      9886      9901      9902      9885      9886      9901      9903
      9885      9886      9901      9907      9886      9885      9889      9890
      9886      9885      9889      9891      9886      9885      9889      9892
      9886      9885      9893      9894      9886      9885      9893      9895
      9886      9885      9893      9896      9886      9885      9897      9898
      9886      9885      9897      9899      9886      9885      9897      9900
      9886      9901      9907      9904      9887      9886      9885      9889
      9887      9886      9885      9893      9887      9886      9885      9897
      9887      9886      9901      9902      9887      9886      9901      9903
      9887      9886      9901      9907      9888      9886      9885      9889
      9888      9886      9885      9893      9888      9886      9885      9897
      9888      9886      9901      9902      9888      9886      9901      9903
      9888      9886      9901      9907      9889      9885      9886      9901
      9889      9885      9893      9894      9889      9885      9893      9895
      9889      9885      9893      9896      9889      9885      9897      9898
      9889      9885      9897      9899      9889      9885      9897      9900
      9890      9889      9885      9893      9890      9889      9885      9897
      9891      9889      9885      9893      9891      9889      9885      9897
      9892      9889      9885      9893      9892      9889      9885      9897
      9893      9885      9886      9901      9893      9885      9897      9898
      9893      9885      9897      9899      9893      9885      9897      9900
      9894      9893      9885      9897      9895      9893      9885      9897
      9896      9893      9885      9897      9897      9885      9886      9901
      9901      9907      9904      9905      9901      9907      9904      9906
      9901      9907      9904      9908      9902      9901      9907      9904
      9903      9901      9907      9904      9904      9908      9909      9910
      9904      9908      9909      9911      9904      9908      9909      9912
      9905      9904      9908      9909      9906      9904      9908      9909
      9907      9904      9908      9909      9908      9909      9912      9913
      9908      9909      9912      9914      9908      9909      9912      9920
      9909      9912      9914      9915      9909      9912      9920      9921
      9909      9912      9920      9922      9909      9912      9920      9923
      9910      9909      9912      9913      9910      9909      9912      9914
      9910      9909      9912      9920      9911      9909      9912      9913
      9911      9909      9912      9914      9911      9909      9912      9920
      9912      9914      9915      9916      9912      9914      9915      9917
      9912      9920      9923      9924      9913      9912      9914      9915
      9913      9912      9920      9921      9913      9912      9920      9922
      9913      9912      9920      9923      9914      9912      9920      9921
      9914      9912      9920      9922      9914      9912      9920      9923
      9914      9915      9917      9918      9914      9915      9917      9919
      9914      9915      9917      9929      9915      9914      9912      9920
      9915      9917      9929      9930      9915      9917      9929      9931
      9915      9917      9929      9932      9916      9915      9917      9918
      9916      9915      9917      9919      9916      9915      9917      9929
      9917      9929      9932      9933      9917      9929      9932      9934
      9917      9929      9932      9935      9918      9917      9929      9930
      9918      9917      9929      9931      9918      9917      9929      9932
      9919      9917      9929      9930      9919      9917      9929      9931
      9919      9917      9929      9932      9920      9923      9924      9925
      9920      9923      9924      9926      9921      9920      9923      9924
      9922      9920      9923      9924      9923      9924      9926      9927
      9923      9924      9926      9928      9923      9924      9926      9976
      9924      9926      9976      9977      9924      9926      9976      9978
      9924      9926      9976      9979      9925      9924      9926      9927
      9925      9924      9926      9928      9925      9924      9926      9976
      9926      9976      9979      9980      9926      9976      9979      9981
      9926      9976      9979      9982      9927      9926      9976      9977
      9927      9926      9976      9978      9927      9926      9976      9979
      9928      9926      9976      9977      9928      9926      9976      9978
      9928      9926      9976      9979      9929      9932      9935      9936
      9929      9932      9935      9937      9929      9932      9935      9938
      9930      9929      9932      9933      9930      9929      9932      9934
      9930      9929      9932      9935      9931      9929      9932      9933
      9931      9929      9932      9934      9931      9929      9932      9935
      9932      9935      9938      9939      9932      9935      9938      9940
      9932      9935      9938      9941      9933      9932      9935      9936
      9933      9932      9935      9937      9933      9932      9935      9938
      9934      9932      9935      9936      9934      9932      9935      9937
      9934      9932      9935      9938      9935      9938      9941      9942
      9935      9938      9941      9943      9935      9938      9941      9944
      9936      9935      9938      9939      9936      9935      9938      9940
      9936      9935      9938      9941      9937      9935      9938      9939
      9937      9935      9938      9940      9937      9935      9938      9941
      9938      9941      9944      9945      9938      9941      9944      9946
      9938      9941      9944      9947      9939      9938      9941      9942
      9939      9938      9941      9943      9939      9938      9941      9944
      9940      9938      9941      9942      9940      9938      9941      9943
      9940      9938      9941      9944      9941      9944      9947      9948
      9941      9944      9947      9949      9942      9941      9944      9945
      9942      9941      9944      9946      9942      9941      9944      9947
      9943      9941      9944      9945      9943      9941      9944      9946
      9943      9941      9944      9947      9944      9947      9949      9950
      9944      9947      9949      9951      9945      9944      9947      9948
      9945      9944      9947      9949      9946      9944      9947      9948
      9946      9944      9947      9949      9947      9949      9951      9952
      9947      9949      9951      9953      9947      9949      9951      9954
      9948      9947      9949      9950      9948      9947      9949      9951
      9949      9951      9954      9955      9949      9951      9954      9956
      9949      9951      9954      9957      9950      9949      9951      9952
      9950      9949      9951      9953      9950      9949      9951      9954
      9951      9954      9957      9958      9951      9954      9957      9959
      9951      9954      9957      9960      9952      9951      9954      9955
      9952      9951      9954      9956      9952      9951      9954      9957
      9953      9951      9954      9955      9953      9951      9954      9956
      9953      9951      9954      9957      9954      9957      9960      9961
      9954      9957      9960      9962      9954      9957      9960      9963
      9955      9954      9957      9958      9955      9954      9957      9959
      9955      9954      9957      9960      9956      9954      9957      9958
      9956      9954      9957      9959      9956      9954      9957      9960
      9957      9960      9963      9964      9957      9960      9963      9965
      9957      9960      9963      9966      9958      9957      9960      9961
      9958      9957      9960      9962      9958      9957      9960      9963
      9959      9957      9960      9961      9959      9957      9960      9962
      9959      9957      9960      9963      9960      9963      9966      9967
      9960      9963      9966      9968      9960      9963      9966      9969
      9961      9960      9963      9964      9961      9960      9963      9965
      9961      9960      9963      9966      9962      9960      9963      9964
      9962      9960      9963      9965      9962      9960      9963      9966
      9963      9966      9969      9970      9963      9966      9969      9971
      9963      9966      9969      9972      9964      9963      9966      9967
      9964      9963      9966      9968      9964      9963      9966      9969
      9965      9963      9966      9967      9965      9963      9966      9968
      9965      9963      9966      9969      9966      9969      9972      9973
      9966      9969      9972      9974      9966      9969      9972      9975
      9967      9966      9969      9970      9967      9966      9969      9971
      9967      9966      9969      9972      9968      9966      9969      9970
      9968      9966      9969      9971      9968      9966      9969      9972
      9970      9969      9972      9973      9970      9969      9972      9974
      9970      9969      9972      9975      9971      9969      9972      9973
      9971      9969      9972      9974      9971      9969      9972      9975
      9976      9979      9982      9983      9976      9979      9982      9984
      9976      9979      9982      9985      9977      9976      9979      9980
      9977      9976      9979      9981      9977      9976      9979      9982
      9978      9976      9979      9980      9978      9976      9979      9981
      9978      9976      9979      9982      9979      9982      9985      9986
      9979      9982      9985      9987      9979      9982      9985      9988
      9980      9979      9982      9983      9980      9979      9982      9984
      9980      9979      9982      9985      9981      9979      9982      9983
      9981      9979      9982      9984      9981      9979      9982      9985
      9982      9985      9988      9989      9982      9985      9988      9990
      9982      9985      9988      9991      9983      9982      9985      9986
      9983      9982      9985      9987      9983      9982      9985      9988
      9984      9982      9985      9986      9984      9982      9985      9987
      9984      9982      9985      9988      9985      9988      9991      9992
      9985      9988      9991      9993      9985      9988      9991      9994
      9986      9985      9988      9989      9986      9985      9988      9990
      9986      9985      9988      9991      9987      9985      9988      9989
      9987      9985      9988      9990      9987      9985      9988      9991
      9988      9991      9994      9995      9988      9991      9994      9996
      9989      9988      9991      9992      9989      9988      9991      9993
      9989      9988      9991      9994      9990      9988      9991      9992
      9990      9988      9991      9993      9990      9988      9991      9994
      9991      9994      9996      9997      9991      9994      9996      9998
      9992      9991      9994      9995      9992      9991      9994      9996
      9993      9991      9994      9995      9993      9991      9994      9996
      9994      9996      9998      9999      9994      9996      9998     10000
      9994      9996      9998     10001      9995      9994      9996      9997
      9995      9994      9996      9998      9996      9998     10001     10002
      9996      9998     10001     10003      9996      9998     10001     10004
      9997      9996      9998      9999      9997      9996      9998     10000
      9997      9996      9998     10001      9998     10001     10004     10005
      9998     10001     10004     10006      9998     10001     10004     10007
      9999      9998     10001     10002      9999      9998     10001     10003
      9999      9998     10001     10004     10000      9998     10001     10002
     10000      9998     10001     10003     10000      9998     10001     10004
     10001     10004     10007     10008     10001     10004     10007     10009
     10001     10004     10007     10010     10002     10001     10004     10005
     10002     10001     10004     10006     10002     10001     10004     10007
     10003     10001     10004     10005     10003     10001     10004     10006
     10003     10001     10004     10007     10004     10007     10010     10011
     10004     10007     10010     10012     10004     10007     10010     10013
     10005     10004     10007     10008     10005     10004     10007     10009
     10005     10004     10007     10010     10006     10004     10007     10008
     10006     10004     10007     10009     10006     10004     10007     10010
     10007     10010     10013     10014     10007     10010     10013     10015
     10007     10010     10013     10016     10008     10007     10010     10011
     10008     10007     10010     10012     10008     10007     10010     10013
     10009     10007     10010     10011     10009     10007     10010     10012
     10009     10007     10010     10013     10010     10013     10016     10017
     10010     10013     10016     10018     10010     10013     10016     10019
     10011     10010     10013     10014     10011     10010     10013     10015
     10011     10010     10013     10016     10012     10010     10013     10014
     10012     10010     10013     10015     10012     10010     10013     10016
     10013     10016     10019     10020     10013     10016     10019     10021
     10013     10016     10019     10022     10014     10013     10016     10017
     10014     10013     10016     10018     10014     10013     10016     10019
     10015     10013     10016     10017     10015     10013     10016     10018
     10015     10013     10016     10019     10017     10016     10019     10020
     10017     10016     10019     10021     10017     10016     10019     10022
     10018     10016     10019     10020     10018     10016     10019     10021
     10018     10016     10019     10022     10023     10024     10039     10040
     10023     10024     10039     10041     10023     10024     10039     10045
     10024     10023     10027     10028     10024     10023     10027     10029
     10024     10023     10027     10030     10024     10023     10031     10032
     10024     10023     10031     10033     10024     10023     10031     10034
     10024     10023     10035     10036     10024     10023     10035     10037
     10024     10023     10035     10038     10024     10039     10045     10042
     10025     10024     10023     10027     10025     10024     10023     10031
     10025     10024     10023     10035     10025     10024     10039     10040
     10025     10024     10039     10041     10025     10024     10039     10045
     10026     10024     10023     10027     10026     10024     10023     10031
     10026     10024     10023     10035     10026     10024     10039     10040
     10026     10024     10039     10041     10026     10024     10039     10045
     10027     10023     10024     10039     10027     10023     10031     10032
     10027     10023     10031     10033     10027     10023     10031     10034
     10027     10023     10035     10036     10027     10023     10035     10037
     10027     10023     10035     10038     10028     10027     10023     10031
     10028     10027     10023     10035     10029     10027     10023     10031
     10029     10027     10023     10035     10030     10027     10023     10031
     10030     10027     10023     10035     10031     10023     10024     10039
     10031     10023     10035     10036     10031     10023     10035     10037
     10031     10023     10035     10038     10032     10031     10023     10035
     10033     10031     10023     10035     10034     10031     10023     10035
     10035     10023     10024     10039     10039     10045     10042     10043
     10039     10045     10042     10044     10039     10045     10042     10046
     10040     10039     10045     10042     10041     10039     10045     10042
     10042     10046     10047     10048     10042     10046     10047     10049
     10042     10046     10047     10050     10043     10042     10046     10047
     10044     10042     10046     10047     10045     10042     10046     10047
     10046     10047     10050     10051     10046     10047     10050     10052
     10046     10047     10050     10058     10047     10050     10052     10053
     10047     10050     10058     10059     10047     10050     10058     10060
     10047     10050     10058     10061     10048     10047     10050     10051
     10048     10047     10050     10052     10048     10047     10050     10058
     10049     10047     10050     10051     10049     10047     10050     10052
     10049     10047     10050     10058     10050     10052     10053     10054
     10050     10052     10053     10055     10050     10058     10061     10062
     10051     10050     10052     10053     10051     10050     10058     10059
     10051     10050     10058     10060     10051     10050     10058     10061
     10052     10050     10058     10059     10052     10050     10058     10060
     10052     10050     10058     10061     10052     10053     10055     10056
     10052     10053     10055     10057     10052     10053     10055     10067
     10053     10052     10050     10058     10053     10055     10067     10068
     10053     10055     10067     10069     10053     10055     10067     10070
     10054     10053     10055     10056     10054     10053     10055     10057
     10054     10053     10055     10067     10055     10067     10070     10071
     10055     10067     10070     10072     10055     10067     10070     10073
     10056     10055     10067     10068     10056     10055     10067     10069
     10056     10055     10067     10070     10057     10055     10067     10068
     10057     10055     10067     10069     10057     10055     10067     10070
     10058     10061     10062     10063     10058     10061     10062     10064
     10059     10058     10061     10062     10060     10058     10061     10062
     10061     10062     10064     10065     10061     10062     10064     10066
     10061     10062     10064     10114     10062     10064     10114     10115
     10062     10064     10114     10116     10062     10064     10114     10117
     10063     10062     10064     10065     10063     10062     10064     10066
     10063     10062     10064     10114     10064     10114     10117     10118
     10064     10114     10117     10119     10064     10114     10117     10120
     10065     10064     10114     10115     10065     10064     10114     10116
     10065     10064     10114     10117     10066     10064     10114     10115
     10066     10064     10114     10116     10066     10064     10114     10117
     10067     10070     10073     10074     10067     10070     10073     10075
     10067     10070     10073     10076     10068     10067     10070     10071
     10068     10067     10070     10072     10068     10067     10070     10073
     10069     10067     10070     10071     10069     10067     10070     10072
     10069     10067     10070     10073     10070     10073     10076     10077
     10070     10073     10076     10078     10070     10073     10076     10079
     10071     10070     10073     10074     10071     10070     10073     10075
     10071     10070     10073     10076     10072     10070     10073     10074
     10072     10070     10073     10075     10072     10070     10073     10076
     10073     10076     10079     10080     10073     10076     10079     10081
     10073     10076     10079     10082     10074     10073     10076     10077
     10074     10073     10076     10078     10074     10073     10076     10079
     10075     10073     10076     10077     10075     10073     10076     10078
     10075     10073     10076     10079     10076     10079     10082     10083
     10076     10079     10082     10084     10076     10079     10082     10085
     10077     10076     10079     10080     10077     10076     10079     10081
     10077     10076     10079     10082     10078     10076     10079     10080
     10078     10076     10079     10081     10078     10076     10079     10082
     10079     10082     10085     10086     10079     10082     10085     10087
     10080     10079     10082     10083     10080     10079     10082     10084
     10080     10079     10082     10085     10081     10079     10082     10083
     10081     10079     10082     10084     10081     10079     10082     10085
     10082     10085     10087     10088     10082     10085     10087     10089
     10083     10082     10085     10086     10083     10082     10085     10087
     10084     10082     10085     10086     10084     10082     10085     10087
     10085     10087     10089     10090     10085     10087     10089     10091
     10085     10087     10089     10092     10086     10085     10087     10088
     10086     10085     10087     10089     10087     10089     10092     10093
     10087     10089     10092     10094     10087     10089     10092     10095
     10088     10087     10089     10090     10088     10087     10089     10091
     10088     10087     10089     10092     10089     10092     10095     10096
     10089     10092     10095     10097     10089     10092     10095     10098
     10090     10089     10092     10093     10090     10089     10092     10094
     10090     10089     10092     10095     10091     10089     10092     10093
     10091     10089     10092     10094     10091     10089     10092     10095
     10092     10095     10098     10099     10092     10095     10098     10100
     10092     10095     10098     10101     10093     10092     10095     10096
     10093     10092     10095     10097     10093     10092     10095     10098
     10094     10092     10095     10096     10094     10092     10095     10097
     10094     10092     10095     10098     10095     10098     10101     10102
     10095     10098     10101     10103     10095     10098     10101     10104
     10096     10095     10098     10099     10096     10095     10098     10100
     10096     10095     10098     10101     10097     10095     10098     10099
     10097     10095     10098     10100     10097     10095     10098     10101
     10098     10101     10104     10105     10098     10101     10104     10106
     10098     10101     10104     10107     10099     10098     10101     10102
     10099     10098     10101     10103     10099     10098     10101     10104
     10100     10098     10101     10102     10100     10098     10101     10103
     10100     10098     10101     10104     10101     10104     10107     10108
     10101     10104     10107     10109     10101     10104     10107     10110
     10102     10101     10104     10105     10102     10101     10104     10106
     10102     10101     10104     10107     10103     10101     10104     10105
     10103     10101     10104     10106     10103     10101     10104     10107
     10104     10107     10110     10111     10104     10107     10110     10112
     10104     10107     10110     10113     10105     10104     10107     10108
     10105     10104     10107     10109     10105     10104     10107     10110
     10106     10104     10107     10108     10106     10104     10107     10109
     10106     10104     10107     10110     10108     10107     10110     10111
     10108     10107     10110     10112     10108     10107     10110     10113
     10109     10107     10110     10111     10109     10107     10110     10112
     10109     10107     10110     10113     10114     10117     10120     10121
     10114     10117     10120     10122     10114     10117     10120     10123
     10115     10114     10117     10118     10115     10114     10117     10119
     10115     10114     10117     10120     10116     10114     10117     10118
     10116     10114     10117     10119     10116     10114     10117     10120
     10117     10120     10123     10124     10117     10120     10123     10125
     10117     10120     10123     10126     10118     10117     10120     10121
     10118     10117     10120     10122     10118     10117     10120     10123
     10119     10117     10120     10121     10119     10117     10120     10122
     10119     10117     10120     10123     10120     10123     10126     10127
     10120     10123     10126     10128     10120     10123     10126     10129
     10121     10120     10123     10124     10121     10120     10123     10125
     10121     10120     10123     10126     10122     10120     10123     10124
     10122     10120     10123     10125     10122     10120     10123     10126
     10123     10126     10129     10130     10123     10126     10129     10131
     10123     10126     10129     10132     10124     10123     10126     10127
     10124     10123     10126     10128     10124     10123     10126     10129
     10125     10123     10126     10127     10125     10123     10126     10128
     10125     10123     10126     10129     10126     10129     10132     10133
     10126     10129     10132     10134     10127     10126     10129     10130
     10127     10126     10129     10131     10127     10126     10129     10132
     10128     10126     10129     10130     10128     10126     10129     10131
     10128     10126     10129     10132     10129     10132     10134     10135
     10129     10132     10134     10136     10130     10129     10132     10133
     10130     10129     10132     10134     10131     10129     10132     10133
     10131     10129     10132     10134     10132     10134     10136     10137
     10132     10134     10136     10138     10132     10134     10136     10139
     10133     10132     10134     10135     10133     10132     10134     10136
     10134     10136     10139     10140     10134     10136     10139     10141
     10134     10136     10139     10142     10135     10134     10136     10137
     10135     10134     10136     10138     10135     10134     10136     10139
     10136     10139     10142     10143     10136     10139     10142     10144
     10136     10139     10142     10145     10137     10136     10139     10140
     10137     10136     10139     10141     10137     10136     10139     10142
     10138     10136     10139     10140     10138     10136     10139     10141
     10138     10136     10139     10142     10139     10142     10145     10146
     10139     10142     10145     10147     10139     10142     10145     10148
     10140     10139     10142     10143     10140     10139     10142     10144
     10140     10139     10142     10145     10141     10139     10142     10143
     10141     10139     10142     10144     10141     10139     10142     10145
     10142     10145     10148     10149     10142     10145     10148     10150
     10142     10145     10148     10151     10143     10142     10145     10146
     10143     10142     10145     10147     10143     10142     10145     10148
     10144     10142     10145     10146     10144     10142     10145     10147
     10144     10142     10145     10148     10145     10148     10151     10152
     10145     10148     10151     10153     10145     10148     10151     10154
     10146     10145     10148     10149     10146     10145     10148     10150
     10146     10145     10148     10151     10147     10145     10148     10149
     10147     10145     10148     10150     10147     10145     10148     10151
     10148     10151     10154     10155     10148     10151     10154     10156
     10148     10151     10154     10157     10149     10148     10151     10152
     10149     10148     10151     10153     10149     10148     10151     10154
     10150     10148     10151     10152     10150     10148     10151     10153
     10150     10148     10151     10154     10151     10154     10157     10158
     10151     10154     10157     10159     10151     10154     10157     10160
     10152     10151     10154     10155     10152     10151     10154     10156
     10152     10151     10154     10157     10153     10151     10154     10155
     10153     10151     10154     10156     10153     10151     10154     10157
     10155     10154     10157     10158     10155     10154     10157     10159
     10155     10154     10157     10160     10156     10154     10157     10158
     10156     10154     10157     10159     10156     10154     10157     10160
     10161     10162     10177     10178     10161     10162     10177     10179
     10161     10162     10177     10183     10162     10161     10165     10166
     10162     10161     10165     10167     10162     10161     10165     10168
     10162     10161     10169     10170     10162     10161     10169     10171
     10162     10161     10169     10172     10162     10161     10173     10174
     10162     10161     10173     10175     10162     10161     10173     10176
     10162     10177     10183     10180     10163     10162     10161     10165
     10163     10162     10161     10169     10163     10162     10161     10173
     10163     10162     10177     10178     10163     10162     10177     10179
     10163     10162     10177     10183     10164     10162     10161     10165
     10164     10162     10161     10169     10164     10162     10161     10173
     10164     10162     10177     10178     10164     10162     10177     10179
     10164     10162     10177     10183     10165     10161     10162     10177
     10165     10161     10169     10170     10165     10161     10169     10171
     10165     10161     10169     10172     10165     10161     10173     10174
     10165     10161     10173     10175     10165     10161     10173     10176
     10166     10165     10161     10169     10166     10165     10161     10173
     10167     10165     10161     10169     10167     10165     10161     10173
     10168     10165     10161     10169     10168     10165     10161     10173
     10169     10161     10162     10177     10169     10161     10173     10174
     10169     10161     10173     10175     10169     10161     10173     10176
     10170     10169     10161     10173     10171     10169     10161     10173
     10172     10169     10161     10173     10173     10161     10162     10177
     10177     10183     10180     10181     10177     10183     10180     10182
     10177     10183     10180     10184     10178     10177     10183     10180
     10179     10177     10183     10180     10180     10184     10185     10186
     10180     10184     10185     10187     10180     10184     10185     10188
     10181     10180     10184     10185     10182     10180     10184     10185
     10183     10180     10184     10185     10184     10185     10188     10189
     10184     10185     10188     10190     10184     10185     10188     10196
     10185     10188     10190     10191     10185     10188     10196     10197
     10185     10188     10196     10198     10185     10188     10196     10199
     10186     10185     10188     10189     10186     10185     10188     10190
     10186     10185     10188     10196     10187     10185     10188     10189
     10187     10185     10188     10190     10187     10185     10188     10196
     10188     10190     10191     10192     10188     10190     10191     10193
     10188     10196     10199     10200     10189     10188     10190     10191
     10189     10188     10196     10197     10189     10188     10196     10198
     10189     10188     10196     10199     10190     10188     10196     10197
     10190     10188     10196     10198     10190     10188     10196     10199
     10190     10191     10193     10194     10190     10191     10193     10195
     10190     10191     10193     10205     10191     10190     10188     10196
     10191     10193     10205     10206     10191     10193     10205     10207
     10191     10193     10205     10208     10192     10191     10193     10194
     10192     10191     10193     10195     10192     10191     10193     10205
     10193     10205     10208     10209     10193     10205     10208     10210
     10193     10205     10208     10211     10194     10193     10205     10206
     10194     10193     10205     10207     10194     10193     10205     10208
     10195     10193     10205     10206     10195     10193     10205     10207
     10195     10193     10205     10208     10196     10199     10200     10201
     10196     10199     10200     10202     10197     10196     10199     10200
     10198     10196     10199     10200     10199     10200     10202     10203
     10199     10200     10202     10204     10199     10200     10202     10252
     10200     10202     10252     10253     10200     10202     10252     10254
     10200     10202     10252     10255     10201     10200     10202     10203
     10201     10200     10202     10204     10201     10200     10202     10252
     10202     10252     10255     10256     10202     10252     10255     10257
     10202     10252     10255     10258     10203     10202     10252     10253
     10203     10202     10252     10254     10203     10202     10252     10255
     10204     10202     10252     10253     10204     10202     10252     10254
     10204     10202     10252     10255     10205     10208     10211     10212
     10205     10208     10211     10213     10205     10208     10211     10214
     10206     10205     10208     10209     10206     10205     10208     10210
     10206     10205     10208     10211     10207     10205     10208     10209
     10207     10205     10208     10210     10207     10205     10208     10211
     10208     10211     10214     10215     10208     10211     10214     10216
     10208     10211     10214     10217     10209     10208     10211     10212
     10209     10208     10211     10213     10209     10208     10211     10214
     10210     10208     10211     10212     10210     10208     10211     10213
     10210     10208     10211     10214     10211     10214     10217     10218
     10211     10214     10217     10219     10211     10214     10217     10220
     10212     10211     10214     10215     10212     10211     10214     10216
     10212     10211     10214     10217     10213     10211     10214     10215
     10213     10211     10214     10216     10213     10211     10214     10217
     10214     10217     10220     10221     10214     10217     10220     10222
     10214     10217     10220     10223     10215     10214     10217     10218
     10215     10214     10217     10219     10215     10214     10217     10220
     10216     10214     10217     10218     10216     10214     10217     10219
     10216     10214     10217     10220     10217     10220     10223     10224
     10217     10220     10223     10225     10218     10217     10220     10221
     10218     10217     10220     10222     10218     10217     10220     10223
     10219     10217     10220     10221     10219     10217     10220     10222
     10219     10217     10220     10223     10220     10223     10225     10226
     10220     10223     10225     10227     10221     10220     10223     10224
     10221     10220     10223     10225     10222     10220     10223     10224
     10222     10220     10223     10225     10223     10225     10227     10228
     10223     10225     10227     10229     10223     10225     10227     10230
     10224     10223     10225     10226     10224     10223     10225     10227
     10225     10227     10230     10231     10225     10227     10230     10232
     10225     10227     10230     10233     10226     10225     10227     10228
     10226     10225     10227     10229     10226     10225     10227     10230
     10227     10230     10233     10234     10227     10230     10233     10235
     10227     10230     10233     10236     10228     10227     10230     10231
     10228     10227     10230     10232     10228     10227     10230     10233
     10229     10227     10230     10231     10229     10227     10230     10232
     10229     10227     10230     10233     10230     10233     10236     10237
     10230     10233     10236     10238     10230     10233     10236     10239
     10231     10230     10233     10234     10231     10230     10233     10235
     10231     10230     10233     10236     10232     10230     10233     10234
     10232     10230     10233     10235     10232     10230     10233     10236
     10233     10236     10239     10240     10233     10236     10239     10241
     10233     10236     10239     10242     10234     10233     10236     10237
     10234     10233     10236     10238     10234     10233     10236     10239
     10235     10233     10236     10237     10235     10233     10236     10238
     10235     10233     10236     10239     10236     10239     10242     10243
     10236     10239     10242     10244     10236     10239     10242     10245
     10237     10236     10239     10240     10237     10236     10239     10241
     10237     10236     10239     10242     10238     10236     10239     10240
     10238     10236     10239     10241     10238     10236     10239     10242
     10239     10242     10245     10246     10239     10242     10245     10247
     10239     10242     10245     10248     10240     10239     10242     10243
     10240     10239     10242     10244     10240     10239     10242     10245
     10241     10239     10242     10243     10241     10239     10242     10244
     10241     10239     10242     10245     10242     10245     10248     10249
     10242     10245     10248     10250     10242     10245     10248     10251
     10243     10242     10245     10246     10243     10242     10245     10247
     10243     10242     10245     10248     10244     10242     10245     10246
     10244     10242     10245     10247     10244     10242     10245     10248
     10246     10245     10248     10249     10246     10245     10248     10250
     10246     10245     10248     10251     10247     10245     10248     10249
     10247     10245     10248     10250     10247     10245     10248     10251
     10252     10255     10258     10259     10252     10255     10258     10260
     10252     10255     10258     10261     10253     10252     10255     10256
     10253     10252     10255     10257     10253     10252     10255     10258
     10254     10252     10255     10256     10254     10252     10255     10257
     10254     10252     10255     10258     10255     10258     10261     10262
     10255     10258     10261     10263     10255     10258     10261     10264
     10256     10255     10258     10259     10256     10255     10258     10260
     10256     10255     10258     10261     10257     10255     10258     10259
     10257     10255     10258     10260     10257     10255     10258     10261
     10258     10261     10264     10265     10258     10261     10264     10266
     10258     10261     10264     10267     10259     10258     10261     10262
     10259     10258     10261     10263     10259     10258     10261     10264
     10260     10258     10261     10262     10260     10258     10261     10263
     10260     10258     10261     10264     10261     10264     10267     10268
     10261     10264     10267     10269     10261     10264     10267     10270
     10262     10261     10264     10265     10262     10261     10264     10266
     10262     10261     10264     10267     10263     10261     10264     10265
     10263     10261     10264     10266     10263     10261     10264     10267
     10264     10267     10270     10271     10264     10267     10270     10272
     10265     10264     10267     10268     10265     10264     10267     10269
     10265     10264     10267     10270     10266     10264     10267     10268
     10266     10264     10267     10269     10266     10264     10267     10270
     10267     10270     10272     10273     10267     10270     10272     10274
     10268     10267     10270     10271     10268     10267     10270     10272
     10269     10267     10270     10271     10269     10267     10270     10272
     10270     10272     10274     10275     10270     10272     10274     10276
     10270     10272     10274     10277     10271     10270     10272     10273
     10271     10270     10272     10274     10272     10274     10277     10278
     10272     10274     10277     10279     10272     10274     10277     10280
     10273     10272     10274     10275     10273     10272     10274     10276
     10273     10272     10274     10277     10274     10277     10280     10281
     10274     10277     10280     10282     10274     10277     10280     10283
     10275     10274     10277     10278     10275     10274     10277     10279
     10275     10274     10277     10280     10276     10274     10277     10278
     10276     10274     10277     10279     10276     10274     10277     10280
     10277     10280     10283     10284     10277     10280     10283     10285
     10277     10280     10283     10286     10278     10277     10280     10281
     10278     10277     10280     10282     10278     10277     10280     10283
     10279     10277     10280     10281     10279     10277     10280     10282
     10279     10277     10280     10283     10280     10283     10286     10287
     10280     10283     10286     10288     10280     10283     10286     10289
     10281     10280     10283     10284     10281     10280     10283     10285
     10281     10280     10283     10286     10282     10280     10283     10284
     10282     10280     10283     10285     10282     10280     10283     10286
     10283     10286     10289     10290     10283     10286     10289     10291
     10283     10286     10289     10292     10284     10283     10286     10287
     10284     10283     10286     10288     10284     10283     10286     10289
     10285     10283     10286     10287     10285     10283     10286     10288
     10285     10283     10286     10289     10286     10289     10292     10293
     10286     10289     10292     10294     10286     10289     10292     10295
     10287     10286     10289     10290     10287     10286     10289     10291
     10287     10286     10289     10292     10288     10286     10289     10290
     10288     10286     10289     10291     10288     10286     10289     10292
     10289     10292     10295     10296     10289     10292     10295     10297
     10289     10292     10295     10298     10290     10289     10292     10293
     10290     10289     10292     10294     10290     10289     10292     10295
     10291     10289     10292     10293     10291     10289     10292     10294
     10291     10289     10292     10295     10293     10292     10295     10296
     10293     10292     10295     10297     10293     10292     10295     10298
     10294     10292     10295     10296     10294     10292     10295     10297
     10294     10292     10295     10298     10299     10300     10315     10316
     10299     10300     10315     10317     10299     10300     10315     10321
     10300     10299     10303     10304     10300     10299     10303     10305
     10300     10299     10303     10306     10300     10299     10307     10308
     10300     10299     10307     10309     10300     10299     10307     10310
     10300     10299     10311     10312     10300     10299     10311     10313
     10300     10299     10311     10314     10300     10315     10321     10318
     10301     10300     10299     10303     10301     10300     10299     10307
     10301     10300     10299     10311     10301     10300     10315     10316
     10301     10300     10315     10317     10301     10300     10315     10321
     10302     10300     10299     10303     10302     10300     10299     10307
     10302     10300     10299     10311     10302     10300     10315     10316
     10302     10300     10315     10317     10302     10300     10315     10321
     10303     10299     10300     10315     10303     10299     10307     10308
     10303     10299     10307     10309     10303     10299     10307     10310
     10303     10299     10311     10312     10303     10299     10311     10313
     10303     10299     10311     10314     10304     10303     10299     10307
     10304     10303     10299     10311     10305     10303     10299     10307
     10305     10303     10299     10311     10306     10303     10299     10307
     10306     10303     10299     10311     10307     10299     10300     10315
     10307     10299     10311     10312     10307     10299     10311     10313
     10307     10299     10311     10314     10308     10307     10299     10311
     10309     10307     10299     10311     10310     10307     10299     10311
     10311     10299     10300     10315     10315     10321     10318     10319
     10315     10321     10318     10320     10315     10321     10318     10322
     10316     10315     10321     10318     10317     10315     10321     10318
     10318     10322     10323     10324     10318     10322     10323     10325
     10318     10322     10323     10326     10319     10318     10322     10323
     10320     10318     10322     10323     10321     10318     10322     10323
     10322     10323     10326     10327     10322     10323     10326     10328
     10322     10323     10326     10334     10323     10326     10328     10329
     10323     10326     10334     10335     10323     10326     10334     10336
     10323     10326     10334     10337     10324     10323     10326     10327
     10324     10323     10326     10328     10324     10323     10326     10334
     10325     10323     10326     10327     10325     10323     10326     10328
     10325     10323     10326     10334     10326     10328     10329     10330
     10326     10328     10329     10331     10326     10334     10337     10338
     10327     10326     10328     10329     10327     10326     10334     10335
     10327     10326     10334     10336     10327     10326     10334     10337
     10328     10326     10334     10335     10328     10326     10334     10336
     10328     10326     10334     10337     10328     10329     10331     10332
     10328     10329     10331     10333     10328     10329     10331     10343
     10329     10328     10326     10334     10329     10331     10343     10344
     10329     10331     10343     10345     10329     10331     10343     10346
     10330     10329     10331     10332     10330     10329     10331     10333
     10330     10329     10331     10343     10331     10343     10346     10347
     10331     10343     10346     10348     10331     10343     10346     10349
     10332     10331     10343     10344     10332     10331     10343     10345
     10332     10331     10343     10346     10333     10331     10343     10344
     10333     10331     10343     10345     10333     10331     10343     10346
     10334     10337     10338     10339     10334     10337     10338     10340
     10335     10334     10337     10338     10336     10334     10337     10338
     10337     10338     10340     10341     10337     10338     10340     10342
     10337     10338     10340     10390     10338     10340     10390     10391
     10338     10340     10390     10392     10338     10340     10390     10393
     10339     10338     10340     10341     10339     10338     10340     10342
     10339     10338     10340     10390     10340     10390     10393     10394
     10340     10390     10393     10395     10340     10390     10393     10396
     10341     10340     10390     10391     10341     10340     10390     10392
     10341     10340     10390     10393     10342     10340     10390     10391
     10342     10340     10390     10392     10342     10340     10390     10393
     10343     10346     10349     10350     10343     10346     10349     10351
     10343     10346     10349     10352     10344     10343     10346     10347
     10344     10343     10346     10348     10344     10343     10346     10349
     10345     10343     10346     10347     10345     10343     10346     10348
     10345     10343     10346     10349     10346     10349     10352     10353
     10346     10349     10352     10354     10346     10349     10352     10355
     10347     10346     10349     10350     10347     10346     10349     10351
     10347     10346     10349     10352     10348     10346     10349     10350
     10348     10346     10349     10351     10348     10346     10349     10352
     10349     10352     10355     10356     10349     10352     10355     10357
     10349     10352     10355     10358     10350     10349     10352     10353
     10350     10349     10352     10354     10350     10349     10352     10355
     10351     10349     10352     10353     10351     10349     10352     10354
     10351     10349     10352     10355     10352     10355     10358     10359
     10352     10355     10358     10360     10352     10355     10358     10361
     10353     10352     10355     10356     10353     10352     10355     10357
     10353     10352     10355     10358     10354     10352     10355     10356
     10354     10352     10355     10357     10354     10352     10355     10358
     10355     10358     10361     10362     10355     10358     10361     10363
     10356     10355     10358     10359     10356     10355     10358     10360
     10356     10355     10358     10361     10357     10355     10358     10359
     10357     10355     10358     10360     10357     10355     10358     10361
     10358     10361     10363     10364     10358     10361     10363     10365
     10359     10358     10361     10362     10359     10358     10361     10363
     10360     10358     10361     10362     10360     10358     10361     10363
     10361     10363     10365     10366     10361     10363     10365     10367
     10361     10363     10365     10368     10362     10361     10363     10364
     10362     10361     10363     10365     10363     10365     10368     10369
     10363     10365     10368     10370     10363     10365     10368     10371
     10364     10363     10365     10366     10364     10363     10365     10367
     10364     10363     10365     10368     10365     10368     10371     10372
     10365     10368     10371     10373     10365     10368     10371     10374
     10366     10365     10368     10369     10366     10365     10368     10370
     10366     10365     10368     10371     10367     10365     10368     10369
     10367     10365     10368     10370     10367     10365     10368     10371
     10368     10371     10374     10375     10368     10371     10374     10376
     10368     10371     10374     10377     10369     10368     10371     10372
     10369     10368     10371     10373     10369     10368     10371     10374
     10370     10368     10371     10372     10370     10368     10371     10373
     10370     10368     10371     10374     10371     10374     10377     10378
     10371     10374     10377     10379     10371     10374     10377     10380
     10372     10371     10374     10375     10372     10371     10374     10376
     10372     10371     10374     10377     10373     10371     10374     10375
     10373     10371     10374     10376     10373     10371     10374     10377
     10374     10377     10380     10381     10374     10377     10380     10382
     10374     10377     10380     10383     10375     10374     10377     10378
     10375     10374     10377     10379     10375     10374     10377     10380
     10376     10374     10377     10378     10376     10374     10377     10379
     10376     10374     10377     10380     10377     10380     10383     10384
     10377     10380     10383     10385     10377     10380     10383     10386
     10378     10377     10380     10381     10378     10377     10380     10382
     10378     10377     10380     10383     10379     10377     10380     10381
     10379     10377     10380     10382     10379     10377     10380     10383
     10380     10383     10386     10387     10380     10383     10386     10388
     10380     10383     10386     10389     10381     10380     10383     10384
     10381     10380     10383     10385     10381     10380     10383     10386
     10382     10380     10383     10384     10382     10380     10383     10385
     10382     10380     10383     10386     10384     10383     10386     10387
     10384     10383     10386     10388     10384     10383     10386     10389
     10385     10383     10386     10387     10385     10383     10386     10388
     10385     10383     10386     10389     10390     10393     10396     10397
     10390     10393     10396     10398     10390     10393     10396     10399
     10391     10390     10393     10394     10391     10390     10393     10395
     10391     10390     10393     10396     10392     10390     10393     10394
     10392     10390     10393     10395     10392     10390     10393     10396
     10393     10396     10399     10400     10393     10396     10399     10401
     10393     10396     10399     10402     10394     10393     10396     10397
     10394     10393     10396     10398     10394     10393     10396     10399
     10395     10393     10396     10397     10395     10393     10396     10398
     10395     10393     10396     10399     10396     10399     10402     10403
     10396     10399     10402     10404     10396     10399     10402     10405
     10397     10396     10399     10400     10397     10396     10399     10401
     10397     10396     10399     10402     10398     10396     10399     10400
     10398     10396     10399     10401     10398     10396     10399     10402
     10399     10402     10405     10406     10399     10402     10405     10407
     10399     10402     10405     10408     10400     10399     10402     10403
     10400     10399     10402     10404     10400     10399     10402     10405
     10401     10399     10402     10403     10401     10399     10402     10404
     10401     10399     10402     10405     10402     10405     10408     10409
     10402     10405     10408     10410     10403     10402     10405     10406
     10403     10402     10405     10407     10403     10402     10405     10408
     10404     10402     10405     10406     10404     10402     10405     10407
     10404     10402     10405     10408     10405     10408     10410     10411
     10405     10408     10410     10412     10406     10405     10408     10409
     10406     10405     10408     10410     10407     10405     10408     10409
     10407     10405     10408     10410     10408     10410     10412     10413
     10408     10410     10412     10414     10408     10410     10412     10415
     10409     10408     10410     10411     10409     10408     10410     10412
     10410     10412     10415     10416     10410     10412     10415     10417
     10410     10412     10415     10418     10411     10410     10412     10413
     10411     10410     10412     10414     10411     10410     10412     10415
     10412     10415     10418     10419     10412     10415     10418     10420
     10412     10415     10418     10421     10413     10412     10415     10416
     10413     10412     10415     10417     10413     10412     10415     10418
     10414     10412     10415     10416     10414     10412     10415     10417
     10414     10412     10415     10418     10415     10418     10421     10422
     10415     10418     10421     10423     10415     10418     10421     10424
     10416     10415     10418     10419     10416     10415     10418     10420
     10416     10415     10418     10421     10417     10415     10418     10419
     10417     10415     10418     10420     10417     10415     10418     10421
     10418     10421     10424     10425     10418     10421     10424     10426
     10418     10421     10424     10427     10419     10418     10421     10422
     10419     10418     10421     10423     10419     10418     10421     10424
     10420     10418     10421     10422     10420     10418     10421     10423
     10420     10418     10421     10424     10421     10424     10427     10428
     10421     10424     10427     10429     10421     10424     10427     10430
     10422     10421     10424     10425     10422     10421     10424     10426
     10422     10421     10424     10427     10423     10421     10424     10425
     10423     10421     10424     10426     10423     10421     10424     10427
     10424     10427     10430     10431     10424     10427     10430     10432
     10424     10427     10430     10433     10425     10424     10427     10428
     10425     10424     10427     10429     10425     10424     10427     10430
     10426     10424     10427     10428     10426     10424     10427     10429
     10426     10424     10427     10430     10427     10430     10433     10434
     10427     10430     10433     10435     10427     10430     10433     10436
     10428     10427     10430     10431     10428     10427     10430     10432
     10428     10427     10430     10433     10429     10427     10430     10431
     10429     10427     10430     10432     10429     10427     10430     10433
     10431     10430     10433     10434     10431     10430     10433     10435
     10431     10430     10433     10436     10432     10430     10433     10434
     10432     10430     10433     10435     10432     10430     10433     10436
     10437     10438     10453     10454     10437     10438     10453     10455
     10437     10438     10453     10459     10438     10437     10441     10442
     10438     10437     10441     10443     10438     10437     10441     10444
     10438     10437     10445     10446     10438     10437     10445     10447
     10438     10437     10445     10448     10438     10437     10449     10450
     10438     10437     10449     10451     10438     10437     10449     10452
     10438     10453     10459     10456     10439     10438     10437     10441
     10439     10438     10437     10445     10439     10438     10437     10449
     10439     10438     10453     10454     10439     10438     10453     10455
     10439     10438     10453     10459     10440     10438     10437     10441
     10440     10438     10437     10445     10440     10438     10437     10449
     10440     10438     10453     10454     10440     10438     10453     10455
     10440     10438     10453     10459     10441     10437     10438     10453
     10441     10437     10445     10446     10441     10437     10445     10447
     10441     10437     10445     10448     10441     10437     10449     10450
     10441     10437     10449     10451     10441     10437     10449     10452
     10442     10441     10437     10445     10442     10441     10437     10449
     10443     10441     10437     10445     10443     10441     10437     10449
     10444     10441     10437     10445     10444     10441     10437     10449
     10445     10437     10438     10453     10445     10437     10449     10450
     10445     10437     10449     10451     10445     10437     10449     10452
     10446     10445     10437     10449     10447     10445     10437     10449
     10448     10445     10437     10449     10449     10437     10438     10453
     10453     10459     10456     10457     10453     10459     10456     10458
     10453     10459     10456     10460     10454     10453     10459     10456
     10455     10453     10459     10456     10456     10460     10461     10462
     10456     10460     10461     10463     10456     10460     10461     10464
     10457     10456     10460     10461     10458     10456     10460     10461
     10459     10456     10460     10461     10460     10461     10464     10465
     10460     10461     10464     10466     10460     10461     10464     10472
     10461     10464     10466     10467     10461     10464     10472     10473
     10461     10464     10472     10474     10461     10464     10472     10475
     10462     10461     10464     10465     10462     10461     10464     10466
     10462     10461     10464     10472     10463     10461     10464     10465
     10463     10461     10464     10466     10463     10461     10464     10472
     10464     10466     10467     10468     10464     10466     10467     10469
     10464     10472     10475     10476     10465     10464     10466     10467
     10465     10464     10472     10473     10465     10464     10472     10474
     10465     10464     10472     10475     10466     10464     10472     10473
     10466     10464     10472     10474     10466     10464     10472     10475
     10466     10467     10469     10470     10466     10467     10469     10471
     10466     10467     10469     10481     10467     10466     10464     10472
     10467     10469     10481     10482     10467     10469     10481     10483
     10467     10469     10481     10484     10468     10467     10469     10470
     10468     10467     10469     10471     10468     10467     10469     10481
     10469     10481     10484     10485     10469     10481     10484     10486
     10469     10481     10484     10487     10470     10469     10481     10482
     10470     10469     10481     10483     10470     10469     10481     10484
     10471     10469     10481     10482     10471     10469     10481     10483
     10471     10469     10481     10484     10472     10475     10476     10477
     10472     10475     10476     10478     10473     10472     10475     10476
     10474     10472     10475     10476     10475     10476     10478     10479
     10475     10476     10478     10480     10475     10476     10478     10528
     10476     10478     10528     10529     10476     10478     10528     10530
     10476     10478     10528     10531     10477     10476     10478     10479
     10477     10476     10478     10480     10477     10476     10478     10528
     10478     10528     10531     10532     10478     10528     10531     10533
     10478     10528     10531     10534     10479     10478     10528     10529
     10479     10478     10528     10530     10479     10478     10528     10531
     10480     10478     10528     10529     10480     10478     10528     10530
     10480     10478     10528     10531     10481     10484     10487     10488
     10481     10484     10487     10489     10481     10484     10487     10490
     10482     10481     10484     10485     10482     10481     10484     10486
     10482     10481     10484     10487     10483     10481     10484     10485
     10483     10481     10484     10486     10483     10481     10484     10487
     10484     10487     10490     10491     10484     10487     10490     10492
     10484     10487     10490     10493     10485     10484     10487     10488
     10485     10484     10487     10489     10485     10484     10487     10490
     10486     10484     10487     10488     10486     10484     10487     10489
     10486     10484     10487     10490     10487     10490     10493     10494
     10487     10490     10493     10495     10487     10490     10493     10496
     10488     10487     10490     10491     10488     10487     10490     10492
     10488     10487     10490     10493     10489     10487     10490     10491
     10489     10487     10490     10492     10489     10487     10490     10493
     10490     10493     10496     10497     10490     10493     10496     10498
     10490     10493     10496     10499     10491     10490     10493     10494
     10491     10490     10493     10495     10491     10490     10493     10496
     10492     10490     10493     10494     10492     10490     10493     10495
     10492     10490     10493     10496     10493     10496     10499     10500
     10493     10496     10499     10501     10494     10493     10496     10497
     10494     10493     10496     10498     10494     10493     10496     10499
     10495     10493     10496     10497     10495     10493     10496     10498
     10495     10493     10496     10499     10496     10499     10501     10502
     10496     10499     10501     10503     10497     10496     10499     10500
     10497     10496     10499     10501     10498     10496     10499     10500
     10498     10496     10499     10501     10499     10501     10503     10504
     10499     10501     10503     10505     10499     10501     10503     10506
     10500     10499     10501     10502     10500     10499     10501     10503
     10501     10503     10506     10507     10501     10503     10506     10508
     10501     10503     10506     10509     10502     10501     10503     10504
     10502     10501     10503     10505     10502     10501     10503     10506
     10503     10506     10509     10510     10503     10506     10509     10511
     10503     10506     10509     10512     10504     10503     10506     10507
     10504     10503     10506     10508     10504     10503     10506     10509
     10505     10503     10506     10507     10505     10503     10506     10508
     10505     10503     10506     10509     10506     10509     10512     10513
     10506     10509     10512     10514     10506     10509     10512     10515
     10507     10506     10509     10510     10507     10506     10509     10511
     10507     10506     10509     10512     10508     10506     10509     10510
     10508     10506     10509     10511     10508     10506     10509     10512
     10509     10512     10515     10516     10509     10512     10515     10517
     10509     10512     10515     10518     10510     10509     10512     10513
     10510     10509     10512     10514     10510     10509     10512     10515
     10511     10509     10512     10513     10511     10509     10512     10514
     10511     10509     10512     10515     10512     10515     10518     10519
     10512     10515     10518     10520     10512     10515     10518     10521
     10513     10512     10515     10516     10513     10512     10515     10517
     10513     10512     10515     10518     10514     10512     10515     10516
     10514     10512     10515     10517     10514     10512     10515     10518
     10515     10518     10521     10522     10515     10518     10521     10523
     10515     10518     10521     10524     10516     10515     10518     10519
     10516     10515     10518     10520     10516     10515     10518     10521
     10517     10515     10518     10519     10517     10515     10518     10520
     10517     10515     10518     10521     10518     10521     10524     10525
     10518     10521     10524     10526     10518     10521     10524     10527
     10519     10518     10521     10522     10519     10518     10521     10523
     10519     10518     10521     10524     10520     10518     10521     10522
     10520     10518     10521     10523     10520     10518     10521     10524
     10522     10521     10524     10525     10522     10521     10524     10526
     10522     10521     10524     10527     10523     10521     10524     10525
     10523     10521     10524     10526     10523     10521     10524     10527
     10528     10531     10534     10535     10528     10531     10534     10536
     10528     10531     10534     10537     10529     10528     10531     10532
     10529     10528     10531     10533     10529     10528     10531     10534
     10530     10528     10531     10532     10530     10528     10531     10533
     10530     10528     10531     10534     10531     10534     10537     10538
     10531     10534     10537     10539     10531     10534     10537     10540
     10532     10531     10534     10535     10532     10531     10534     10536
     10532     10531     10534     10537     10533     10531     10534     10535
     10533     10531     10534     10536     10533     10531     10534     10537
     10534     10537     10540     10541     10534     10537     10540     10542
     10534     10537     10540     10543     10535     10534     10537     10538
     10535     10534     10537     10539     10535     10534     10537     10540
     10536     10534     10537     10538     10536     10534     10537     10539
     10536     10534     10537     10540     10537     10540     10543     10544
     10537     10540     10543     10545     10537     10540     10543     10546
     10538     10537     10540     10541     10538     10537     10540     10542
     10538     10537     10540     10543     10539     10537     10540     10541
     10539     10537     10540     10542     10539     10537     10540     10543
     10540     10543     10546     10547     10540     10543     10546     10548
     10541     10540     10543     10544     10541     10540     10543     10545
     10541     10540     10543     10546     10542     10540     10543     10544
     10542     10540     10543     10545     10542     10540     10543     10546
     10543     10546     10548     10549     10543     10546     10548     10550
     10544     10543     10546     10547     10544     10543     10546     10548
     10545     10543     10546     10547     10545     10543     10546     10548
     10546     10548     10550     10551     10546     10548     10550     10552
     10546     10548     10550     10553     10547     10546     10548     10549
     10547     10546     10548     10550     10548     10550     10553     10554
     10548     10550     10553     10555     10548     10550     10553     10556
     10549     10548     10550     10551     10549     10548     10550     10552
     10549     10548     10550     10553     10550     10553     10556     10557
     10550     10553     10556     10558     10550     10553     10556     10559
     10551     10550     10553     10554     10551     10550     10553     10555
     10551     10550     10553     10556     10552     10550     10553     10554
     10552     10550     10553     10555     10552     10550     10553     10556
     10553     10556     10559     10560     10553     10556     10559     10561
     10553     10556     10559     10562     10554     10553     10556     10557
     10554     10553     10556     10558     10554     10553     10556     10559
     10555     10553     10556     10557     10555     10553     10556     10558
     10555     10553     10556     10559     10556     10559     10562     10563
     10556     10559     10562     10564     10556     10559     10562     10565
     10557     10556     10559     10560     10557     10556     10559     10561
     10557     10556     10559     10562     10558     10556     10559     10560
     10558     10556     10559     10561     10558     10556     10559     10562
     10559     10562     10565     10566     10559     10562     10565     10567
     10559     10562     10565     10568     10560     10559     10562     10563
     10560     10559     10562     10564     10560     10559     10562     10565
     10561     10559     10562     10563     10561     10559     10562     10564
     10561     10559     10562     10565     10562     10565     10568     10569
     10562     10565     10568     10570     10562     10565     10568     10571
     10563     10562     10565     10566     10563     10562     10565     10567
     10563     10562     10565     10568     10564     10562     10565     10566
     10564     10562     10565     10567     10564     10562     10565     10568
     10565     10568     10571     10572     10565     10568     10571     10573
     10565     10568     10571     10574     10566     10565     10568     10569
     10566     10565     10568     10570     10566     10565     10568     10571
     10567     10565     10568     10569     10567     10565     10568     10570
     10567     10565     10568     10571     10569     10568     10571     10572
     10569     10568     10571     10573     10569     10568     10571     10574
     10570     10568     10571     10572     10570     10568     10571     10573
     10570     10568     10571     10574     10575     10576     10591     10592
     10575     10576     10591     10593     10575     10576     10591     10597
     10576     10575     10579     10580     10576     10575     10579     10581
     10576     10575     10579     10582     10576     10575     10583     10584
     10576     10575     10583     10585     10576     10575     10583     10586
     10576     10575     10587     10588     10576     10575     10587     10589
     10576     10575     10587     10590     10576     10591     10597     10594
     10577     10576     10575     10579     10577     10576     10575     10583
     10577     10576     10575     10587     10577     10576     10591     10592
     10577     10576     10591     10593     10577     10576     10591     10597
     10578     10576     10575     10579     10578     10576     10575     10583
     10578     10576     10575     10587     10578     10576     10591     10592
     10578     10576     10591     10593     10578     10576     10591     10597
     10579     10575     10576     10591     10579     10575     10583     10584
     10579     10575     10583     10585     10579     10575     10583     10586
     10579     10575     10587     10588     10579     10575     10587     10589
     10579     10575     10587     10590     10580     10579     10575     10583
     10580     10579     10575     10587     10581     10579     10575     10583
     10581     10579     10575     10587     10582     10579     10575     10583
     10582     10579     10575     10587     10583     10575     10576     10591
     10583     10575     10587     10588     10583     10575     10587     10589
     10583     10575     10587     10590     10584     10583     10575     10587
     10585     10583     10575     10587     10586     10583     10575     10587
     10587     10575     10576     10591     10591     10597     10594     10595
     10591     10597     10594     10596     10591     10597     10594     10598
     10592     10591     10597     10594     10593     10591     10597     10594
     10594     10598     10599     10600     10594     10598     10599     10601
     10594     10598     10599     10602     10595     10594     10598     10599
     10596     10594     10598     10599     10597     10594     10598     10599
     10598     10599     10602     10603     10598     10599     10602     10604
     10598     10599     10602     10610     10599     10602     10604     10605
     10599     10602     10610     10611     10599     10602     10610     10612
     10599     10602     10610     10613     10600     10599     10602     10603
     10600     10599     10602     10604     10600     10599     10602     10610
     10601     10599     10602     10603     10601     10599     10602     10604
     10601     10599     10602     10610     10602     10604     10605     10606
     10602     10604     10605     10607     10602     10610     10613     10614
     10603     10602     10604     10605     10603     10602     10610     10611
     10603     10602     10610     10612     10603     10602     10610     10613
     10604     10602     10610     10611     10604     10602     10610     10612
     10604     10602     10610     10613     10604     10605     10607     10608
     10604     10605     10607     10609     10604     10605     10607     10619
     10605     10604     10602     10610     10605     10607     10619     10620
     10605     10607     10619     10621     10605     10607     10619     10622
     10606     10605     10607     10608     10606     10605     10607     10609
     10606     10605     10607     10619     10607     10619     10622     10623
     10607     10619     10622     10624     10607     10619     10622     10625
     10608     10607     10619     10620     10608     10607     10619     10621
     10608     10607     10619     10622     10609     10607     10619     10620
     10609     10607     10619     10621     10609     10607     10619     10622
     10610     10613     10614     10615     10610     10613     10614     10616
     10611     10610     10613     10614     10612     10610     10613     10614
     10613     10614     10616     10617     10613     10614     10616     10618
     10613     10614     10616     10666     10614     10616     10666     10667
     10614     10616     10666     10668     10614     10616     10666     10669
     10615     10614     10616     10617     10615     10614     10616     10618
     10615     10614     10616     10666     10616     10666     10669     10670
     10616     10666     10669     10671     10616     10666     10669     10672
     10617     10616     10666     10667     10617     10616     10666     10668
     10617     10616     10666     10669     10618     10616     10666     10667
     10618     10616     10666     10668     10618     10616     10666     10669
     10619     10622     10625     10626     10619     10622     10625     10627
     10619     10622     10625     10628     10620     10619     10622     10623
     10620     10619     10622     10624     10620     10619     10622     10625
     10621     10619     10622     10623     10621     10619     10622     10624
     10621     10619     10622     10625     10622     10625     10628     10629
     10622     10625     10628     10630     10622     10625     10628     10631
     10623     10622     10625     10626     10623     10622     10625     10627
     10623     10622     10625     10628     10624     10622     10625     10626
     10624     10622     10625     10627     10624     10622     10625     10628
     10625     10628     10631     10632     10625     10628     10631     10633
     10625     10628     10631     10634     10626     10625     10628     10629
     10626     10625     10628     10630     10626     10625     10628     10631
     10627     10625     10628     10629     10627     10625     10628     10630
     10627     10625     10628     10631     10628     10631     10634     10635
     10628     10631     10634     10636     10628     10631     10634     10637
     10629     10628     10631     10632     10629     10628     10631     10633
     10629     10628     10631     10634     10630     10628     10631     10632
     10630     10628     10631     10633     10630     10628     10631     10634
     10631     10634     10637     10638     10631     10634     10637     10639
     10632     10631     10634     10635     10632     10631     10634     10636
     10632     10631     10634     10637     10633     10631     10634     10635
     10633     10631     10634     10636     10633     10631     10634     10637
     10634     10637     10639     10640     10634     10637     10639     10641
     10635     10634     10637     10638     10635     10634     10637     10639
     10636     10634     10637     10638     10636     10634     10637     10639
     10637     10639     10641     10642     10637     10639     10641     10643
     10637     10639     10641     10644     10638     10637     10639     10640
     10638     10637     10639     10641     10639     10641     10644     10645
     10639     10641     10644     10646     10639     10641     10644     10647
     10640     10639     10641     10642     10640     10639     10641     10643
     10640     10639     10641     10644     10641     10644     10647     10648
     10641     10644     10647     10649     10641     10644     10647     10650
     10642     10641     10644     10645     10642     10641     10644     10646
     10642     10641     10644     10647     10643     10641     10644     10645
     10643     10641     10644     10646     10643     10641     10644     10647
     10644     10647     10650     10651     10644     10647     10650     10652
     10644     10647     10650     10653     10645     10644     10647     10648
     10645     10644     10647     10649     10645     10644     10647     10650
     10646     10644     10647     10648     10646     10644     10647     10649
     10646     10644     10647     10650     10647     10650     10653     10654
     10647     10650     10653     10655     10647     10650     10653     10656
     10648     10647     10650     10651     10648     10647     10650     10652
     10648     10647     10650     10653     10649     10647     10650     10651
     10649     10647     10650     10652     10649     10647     10650     10653
     10650     10653     10656     10657     10650     10653     10656     10658
     10650     10653     10656     10659     10651     10650     10653     10654
     10651     10650     10653     10655     10651     10650     10653     10656
     10652     10650     10653     10654     10652     10650     10653     10655
     10652     10650     10653     10656     10653     10656     10659     10660
     10653     10656     10659     10661     10653     10656     10659     10662
     10654     10653     10656     10657     10654     10653     10656     10658
     10654     10653     10656     10659     10655     10653     10656     10657
     10655     10653     10656     10658     10655     10653     10656     10659
     10656     10659     10662     10663     10656     10659     10662     10664
     10656     10659     10662     10665     10657     10656     10659     10660
     10657     10656     10659     10661     10657     10656     10659     10662
     10658     10656     10659     10660     10658     10656     10659     10661
     10658     10656     10659     10662     10660     10659     10662     10663
     10660     10659     10662     10664     10660     10659     10662     10665
     10661     10659     10662     10663     10661     10659     10662     10664
     10661     10659     10662     10665     10666     10669     10672     10673
     10666     10669     10672     10674     10666     10669     10672     10675
     10667     10666     10669     10670     10667     10666     10669     10671
     10667     10666     10669     10672     10668     10666     10669     10670
     10668     10666     10669     10671     10668     10666     10669     10672
     10669     10672     10675     10676     10669     10672     10675     10677
     10669     10672     10675     10678     10670     10669     10672     10673
     10670     10669     10672     10674     10670     10669     10672     10675
     10671     10669     10672     10673     10671     10669     10672     10674
     10671     10669     10672     10675     10672     10675     10678     10679
     10672     10675     10678     10680     10672     10675     10678     10681
     10673     10672     10675     10676     10673     10672     10675     10677
     10673     10672     10675     10678     10674     10672     10675     10676
     10674     10672     10675     10677     10674     10672     10675     10678
     10675     10678     10681     10682     10675     10678     10681     10683
     10675     10678     10681     10684     10676     10675     10678     10679
     10676     10675     10678     10680     10676     10675     10678     10681
     10677     10675     10678     10679     10677     10675     10678     10680
     10677     10675     10678     10681     10678     10681     10684     10685
     10678     10681     10684     10686     10679     10678     10681     10682
     10679     10678     10681     10683     10679     10678     10681     10684
     10680     10678     10681     10682     10680     10678     10681     10683
     10680     10678     10681     10684     10681     10684     10686     10687
     10681     10684     10686     10688     10682     10681     10684     10685
     10682     10681     10684     10686     10683     10681     10684     10685
     10683     10681     10684     10686     10684     10686     10688     10689
     10684     10686     10688     10690     10684     10686     10688     10691
     10685     10684     10686     10687     10685     10684     10686     10688
     10686     10688     10691     10692     10686     10688     10691     10693
     10686     10688     10691     10694     10687     10686     10688     10689
     10687     10686     10688     10690     10687     10686     10688     10691
     10688     10691     10694     10695     10688     10691     10694     10696
     10688     10691     10694     10697     10689     10688     10691     10692
     10689     10688     10691     10693     10689     10688     10691     10694
     10690     10688     10691     10692     10690     10688     10691     10693
     10690     10688     10691     10694     10691     10694     10697     10698
     10691     10694     10697     10699     10691     10694     10697     10700
     10692     10691     10694     10695     10692     10691     10694     10696
     10692     10691     10694     10697     10693     10691     10694     10695
     10693     10691     10694     10696     10693     10691     10694     10697
     10694     10697     10700     10701     10694     10697     10700     10702
     10694     10697     10700     10703     10695     10694     10697     10698
     10695     10694     10697     10699     10695     10694     10697     10700
     10696     10694     10697     10698     10696     10694     10697     10699
     10696     10694     10697     10700     10697     10700     10703     10704
     10697     10700     10703     10705     10697     10700     10703     10706
     10698     10697     10700     10701     10698     10697     10700     10702
     10698     10697     10700     10703     10699     10697     10700     10701
     10699     10697     10700     10702     10699     10697     10700     10703
     10700     10703     10706     10707     10700     10703     10706     10708
     10700     10703     10706     10709     10701     10700     10703     10704
     10701     10700     10703     10705     10701     10700     10703     10706
     10702     10700     10703     10704     10702     10700     10703     10705
     10702     10700     10703     10706     10703     10706     10709     10710
     10703     10706     10709     10711     10703     10706     10709     10712
     10704     10703     10706     10707     10704     10703     10706     10708
     10704     10703     10706     10709     10705     10703     10706     10707
     10705     10703     10706     10708     10705     10703     10706     10709
     10707     10706     10709     10710     10707     10706     10709     10711
     10707     10706     10709     10712     10708     10706     10709     10710
     10708     10706     10709     10711     10708     10706     10709     10712
     10713     10714     10729     10730     10713     10714     10729     10731
     10713     10714     10729     10735     10714     10713     10717     10718
     10714     10713     10717     10719     10714     10713     10717     10720
     10714     10713     10721     10722     10714     10713     10721     10723
     10714     10713     10721     10724     10714     10713     10725     10726
     10714     10713     10725     10727     10714     10713     10725     10728
     10714     10729     10735     10732     10715     10714     10713     10717
     10715     10714     10713     10721     10715     10714     10713     10725
     10715     10714     10729     10730     10715     10714     10729     10731
     10715     10714     10729     10735     10716     10714     10713     10717
     10716     10714     10713     10721     10716     10714     10713     10725
     10716     10714     10729     10730     10716     10714     10729     10731
     10716     10714     10729     10735     10717     10713     10714     10729
     10717     10713     10721     10722     10717     10713     10721     10723
     10717     10713     10721     10724     10717     10713     10725     10726
     10717     10713     10725     10727     10717     10713     10725     10728
     10718     10717     10713     10721     10718     10717     10713     10725
     10719     10717     10713     10721     10719     10717     10713     10725
     10720     10717     10713     10721     10720     10717     10713     10725
     10721     10713     10714     10729     10721     10713     10725     10726
     10721     10713     10725     10727     10721     10713     10725     10728
     10722     10721     10713     10725     10723     10721     10713     10725
     10724     10721     10713     10725     10725     10713     10714     10729
     10729     10735     10732     10733     10729     10735     10732     10734
     10729     10735     10732     10736     10730     10729     10735     10732
     10731     10729     10735     10732     10732     10736     10737     10738
     10732     10736     10737     10739     10732     10736     10737     10740
     10733     10732     10736     10737     10734     10732     10736     10737
     10735     10732     10736     10737     10736     10737     10740     10741
     10736     10737     10740     10742     10736     10737     10740     10748
     10737     10740     10742     10743     10737     10740     10748     10749
     10737     10740     10748     10750     10737     10740     10748     10751
     10738     10737     10740     10741     10738     10737     10740     10742
     10738     10737     10740     10748     10739     10737     10740     10741
     10739     10737     10740     10742     10739     10737     10740     10748
     10740     10742     10743     10744     10740     10742     10743     10745
     10740     10748     10751     10752     10741     10740     10742     10743
     10741     10740     10748     10749     10741     10740     10748     10750
     10741     10740     10748     10751     10742     10740     10748     10749
     10742     10740     10748     10750     10742     10740     10748     10751
     10742     10743     10745     10746     10742     10743     10745     10747
     10742     10743     10745     10757     10743     10742     10740     10748
     10743     10745     10757     10758     10743     10745     10757     10759
     10743     10745     10757     10760     10744     10743     10745     10746
     10744     10743     10745     10747     10744     10743     10745     10757
     10745     10757     10760     10761     10745     10757     10760     10762
     10745     10757     10760     10763     10746     10745     10757     10758
     10746     10745     10757     10759     10746     10745     10757     10760
     10747     10745     10757     10758     10747     10745     10757     10759
     10747     10745     10757     10760     10748     10751     10752     10753
     10748     10751     10752     10754     10749     10748     10751     10752
     10750     10748     10751     10752     10751     10752     10754     10755
     10751     10752     10754     10756     10751     10752     10754     10804
     10752     10754     10804     10805     10752     10754     10804     10806
     10752     10754     10804     10807     10753     10752     10754     10755
     10753     10752     10754     10756     10753     10752     10754     10804
     10754     10804     10807     10808     10754     10804     10807     10809
     10754     10804     10807     10810     10755     10754     10804     10805
     10755     10754     10804     10806     10755     10754     10804     10807
     10756     10754     10804     10805     10756     10754     10804     10806
     10756     10754     10804     10807     10757     10760     10763     10764
     10757     10760     10763     10765     10757     10760     10763     10766
     10758     10757     10760     10761     10758     10757     10760     10762
     10758     10757     10760     10763     10759     10757     10760     10761
     10759     10757     10760     10762     10759     10757     10760     10763
     10760     10763     10766     10767     10760     10763     10766     10768
     10760     10763     10766     10769     10761     10760     10763     10764
     10761     10760     10763     10765     10761     10760     10763     10766
     10762     10760     10763     10764     10762     10760     10763     10765
     10762     10760     10763     10766     10763     10766     10769     10770
     10763     10766     10769     10771     10763     10766     10769     10772
     10764     10763     10766     10767     10764     10763     10766     10768
     10764     10763     10766     10769     10765     10763     10766     10767
     10765     10763     10766     10768     10765     10763     10766     10769
     10766     10769     10772     10773     10766     10769     10772     10774
     10766     10769     10772     10775     10767     10766     10769     10770
     10767     10766     10769     10771     10767     10766     10769     10772
     10768     10766     10769     10770     10768     10766     10769     10771
     10768     10766     10769     10772     10769     10772     10775     10776
     10769     10772     10775     10777     10770     10769     10772     10773
     10770     10769     10772     10774     10770     10769     10772     10775
     10771     10769     10772     10773     10771     10769     10772     10774
     10771     10769     10772     10775     10772     10775     10777     10778
     10772     10775     10777     10779     10773     10772     10775     10776
     10773     10772     10775     10777     10774     10772     10775     10776
     10774     10772     10775     10777     10775     10777     10779     10780
     10775     10777     10779     10781     10775     10777     10779     10782
     10776     10775     10777     10778     10776     10775     10777     10779
     10777     10779     10782     10783     10777     10779     10782     10784
     10777     10779     10782     10785     10778     10777     10779     10780
     10778     10777     10779     10781     10778     10777     10779     10782
     10779     10782     10785     10786     10779     10782     10785     10787
     10779     10782     10785     10788     10780     10779     10782     10783
     10780     10779     10782     10784     10780     10779     10782     10785
     10781     10779     10782     10783     10781     10779     10782     10784
     10781     10779     10782     10785     10782     10785     10788     10789
     10782     10785     10788     10790     10782     10785     10788     10791
     10783     10782     10785     10786     10783     10782     10785     10787
     10783     10782     10785     10788     10784     10782     10785     10786
     10784     10782     10785     10787     10784     10782     10785     10788
     10785     10788     10791     10792     10785     10788     10791     10793
     10785     10788     10791     10794     10786     10785     10788     10789
     10786     10785     10788     10790     10786     10785     10788     10791
     10787     10785     10788     10789     10787     10785     10788     10790
     10787     10785     10788     10791     10788     10791     10794     10795
     10788     10791     10794     10796     10788     10791     10794     10797
     10789     10788     10791     10792     10789     10788     10791     10793
     10789     10788     10791     10794     10790     10788     10791     10792
     10790     10788     10791     10793     10790     10788     10791     10794
     10791     10794     10797     10798     10791     10794     10797     10799
     10791     10794     10797     10800     10792     10791     10794     10795
     10792     10791     10794     10796     10792     10791     10794     10797
     10793     10791     10794     10795     10793     10791     10794     10796
     10793     10791     10794     10797     10794     10797     10800     10801
     10794     10797     10800     10802     10794     10797     10800     10803
     10795     10794     10797     10798     10795     10794     10797     10799
     10795     10794     10797     10800     10796     10794     10797     10798
     10796     10794     10797     10799     10796     10794     10797     10800
     10798     10797     10800     10801     10798     10797     10800     10802
     10798     10797     10800     10803     10799     10797     10800     10801
     10799     10797     10800     10802     10799     10797     10800     10803
     10804     10807     10810     10811     10804     10807     10810     10812
     10804     10807     10810     10813     10805     10804     10807     10808
     10805     10804     10807     10809     10805     10804     10807     10810
     10806     10804     10807     10808     10806     10804     10807     10809
     10806     10804     10807     10810     10807     10810     10813     10814
     10807     10810     10813     10815     10807     10810     10813     10816
     10808     10807     10810     10811     10808     10807     10810     10812
     10808     10807     10810     10813     10809     10807     10810     10811
     10809     10807     10810     10812     10809     10807     10810     10813
     10810     10813     10816     10817     10810     10813     10816     10818
     10810     10813     10816     10819     10811     10810     10813     10814
     10811     10810     10813     10815     10811     10810     10813     10816
     10812     10810     10813     10814     10812     10810     10813     10815
     10812     10810     10813     10816     10813     10816     10819     10820
     10813     10816     10819     10821     10813     10816     10819     10822
     10814     10813     10816     10817     10814     10813     10816     10818
     10814     10813     10816     10819     10815     10813     10816     10817
     10815     10813     10816     10818     10815     10813     10816     10819
     10816     10819     10822     10823     10816     10819     10822     10824
     10817     10816     10819     10820     10817     10816     10819     10821
     10817     10816     10819     10822     10818     10816     10819     10820
     10818     10816     10819     10821     10818     10816     10819     10822
     10819     10822     10824     10825     10819     10822     10824     10826
     10820     10819     10822     10823     10820     10819     10822     10824
     10821     10819     10822     10823     10821     10819     10822     10824
     10822     10824     10826     10827     10822     10824     10826     10828
     10822     10824     10826     10829     10823     10822     10824     10825
     10823     10822     10824     10826     10824     10826     10829     10830
     10824     10826     10829     10831     10824     10826     10829     10832
     10825     10824     10826     10827     10825     10824     10826     10828
     10825     10824     10826     10829     10826     10829     10832     10833
     10826     10829     10832     10834     10826     10829     10832     10835
     10827     10826     10829     10830     10827     10826     10829     10831
     10827     10826     10829     10832     10828     10826     10829     10830
     10828     10826     10829     10831     10828     10826     10829     10832
     10829     10832     10835     10836     10829     10832     10835     10837
     10829     10832     10835     10838     10830     10829     10832     10833
     10830     10829     10832     10834     10830     10829     10832     10835
     10831     10829     10832     10833     10831     10829     10832     10834
     10831     10829     10832     10835     10832     10835     10838     10839
     10832     10835     10838     10840     10832     10835     10838     10841
     10833     10832     10835     10836     10833     10832     10835     10837
     10833     10832     10835     10838     10834     10832     10835     10836
     10834     10832     10835     10837     10834     10832     10835     10838
     10835     10838     10841     10842     10835     10838     10841     10843
     10835     10838     10841     10844     10836     10835     10838     10839
     10836     10835     10838     10840     10836     10835     10838     10841
     10837     10835     10838     10839     10837     10835     10838     10840
     10837     10835     10838     10841     10838     10841     10844     10845
     10838     10841     10844     10846     10838     10841     10844     10847
     10839     10838     10841     10842     10839     10838     10841     10843
     10839     10838     10841     10844     10840     10838     10841     10842
     10840     10838     10841     10843     10840     10838     10841     10844
     10841     10844     10847     10848     10841     10844     10847     10849
     10841     10844     10847     10850     10842     10841     10844     10845
     10842     10841     10844     10846     10842     10841     10844     10847
     10843     10841     10844     10845     10843     10841     10844     10846
     10843     10841     10844     10847     10845     10844     10847     10848
     10845     10844     10847     10849     10845     10844     10847     10850
     10846     10844     10847     10848     10846     10844     10847     10849
     10846     10844     10847     10850     10851     10852     10867     10868
     10851     10852     10867     10869     10851     10852     10867     10873
     10852     10851     10855     10856     10852     10851     10855     10857
     10852     10851     10855     10858     10852     10851     10859     10860
     10852     10851     10859     10861     10852     10851     10859     10862
     10852     10851     10863     10864     10852     10851     10863     10865
     10852     10851     10863     10866     10852     10867     10873     10870
     10853     10852     10851     10855     10853     10852     10851     10859
     10853     10852     10851     10863     10853     10852     10867     10868
     10853     10852     10867     10869     10853     10852     10867     10873
     10854     10852     10851     10855     10854     10852     10851     10859
     10854     10852     10851     10863     10854     10852     10867     10868
     10854     10852     10867     10869     10854     10852     10867     10873
     10855     10851     10852     10867     10855     10851     10859     10860
     10855     10851     10859     10861     10855     10851     10859     10862
     10855     10851     10863     10864     10855     10851     10863     10865
     10855     10851     10863     10866     10856     10855     10851     10859
     10856     10855     10851     10863     10857     10855     10851     10859
     10857     10855     10851     10863     10858     10855     10851     10859
     10858     10855     10851     10863     10859     10851     10852     10867
     10859     10851     10863     10864     10859     10851     10863     10865
     10859     10851     10863     10866     10860     10859     10851     10863
     10861     10859     10851     10863     10862     10859     10851     10863
     10863     10851     10852     10867     10867     10873     10870     10871
     10867     10873     10870     10872     10867     10873     10870     10874
     10868     10867     10873     10870     10869     10867     10873     10870
     10870     10874     10875     10876     10870     10874     10875     10877
     10870     10874     10875     10878     10871     10870     10874     10875
     10872     10870     10874     10875     10873     10870     10874     10875
     10874     10875     10878     10879     10874     10875     10878     10880
     10874     10875     10878     10886     10875     10878     10880     10881
     10875     10878     10886     10887     10875     10878     10886     10888
     10875     10878     10886     10889     10876     10875     10878     10879
     10876     10875     10878     10880     10876     10875     10878     10886
     10877     10875     10878     10879     10877     10875     10878     10880
     10877     10875     10878     10886     10878     10880     10881     10882
     10878     10880     10881     10883     10878     10886     10889     10890
     10879     10878     10880     10881     10879     10878     10886     10887
     10879     10878     10886     10888     10879     10878     10886     10889
     10880     10878     10886     10887     10880     10878     10886     10888
     10880     10878     10886     10889     10880     10881     10883     10884
     10880     10881     10883     10885     10880     10881     10883     10895
     10881     10880     10878     10886     10881     10883     10895     10896
     10881     10883     10895     10897     10881     10883     10895     10898
     10882     10881     10883     10884     10882     10881     10883     10885
     10882     10881     10883     10895     10883     10895     10898     10899
     10883     10895     10898     10900     10883     10895     10898     10901
     10884     10883     10895     10896     10884     10883     10895     10897
     10884     10883     10895     10898     10885     10883     10895     10896
     10885     10883     10895     10897     10885     10883     10895     10898
     10886     10889     10890     10891     10886     10889     10890     10892
     10887     10886     10889     10890     10888     10886     10889     10890
     10889     10890     10892     10893     10889     10890     10892     10894
     10889     10890     10892     10942     10890     10892     10942     10943
     10890     10892     10942     10944     10890     10892     10942     10945
     10891     10890     10892     10893     10891     10890     10892     10894
     10891     10890     10892     10942     10892     10942     10945     10946
     10892     10942     10945     10947     10892     10942     10945     10948
     10893     10892     10942     10943     10893     10892     10942     10944
     10893     10892     10942     10945     10894     10892     10942     10943
     10894     10892     10942     10944     10894     10892     10942     10945
     10895     10898     10901     10902     10895     10898     10901     10903
     10895     10898     10901     10904     10896     10895     10898     10899
     10896     10895     10898     10900     10896     10895     10898     10901
     10897     10895     10898     10899     10897     10895     10898     10900
     10897     10895     10898     10901     10898     10901     10904     10905
     10898     10901     10904     10906     10898     10901     10904     10907
     10899     10898     10901     10902     10899     10898     10901     10903
     10899     10898     10901     10904     10900     10898     10901     10902
     10900     10898     10901     10903     10900     10898     10901     10904
     10901     10904     10907     10908     10901     10904     10907     10909
     10901     10904     10907     10910     10902     10901     10904     10905
     10902     10901     10904     10906     10902     10901     10904     10907
     10903     10901     10904     10905     10903     10901     10904     10906
     10903     10901     10904     10907     10904     10907     10910     10911
     10904     10907     10910     10912     10904     10907     10910     10913
     10905     10904     10907     10908     10905     10904     10907     10909
     10905     10904     10907     10910     10906     10904     10907     10908
     10906     10904     10907     10909     10906     10904     10907     10910
     10907     10910     10913     10914     10907     10910     10913     10915
     10908     10907     10910     10911     10908     10907     10910     10912
     10908     10907     10910     10913     10909     10907     10910     10911
     10909     10907     10910     10912     10909     10907     10910     10913
     10910     10913     10915     10916     10910     10913     10915     10917
     10911     10910     10913     10914     10911     10910     10913     10915
     10912     10910     10913     10914     10912     10910     10913     10915
     10913     10915     10917     10918     10913     10915     10917     10919
     10913     10915     10917     10920     10914     10913     10915     10916
     10914     10913     10915     10917     10915     10917     10920     10921
     10915     10917     10920     10922     10915     10917     10920     10923
     10916     10915     10917     10918     10916     10915     10917     10919
     10916     10915     10917     10920     10917     10920     10923     10924
     10917     10920     10923     10925     10917     10920     10923     10926
     10918     10917     10920     10921     10918     10917     10920     10922
     10918     10917     10920     10923     10919     10917     10920     10921
     10919     10917     10920     10922     10919     10917     10920     10923
     10920     10923     10926     10927     10920     10923     10926     10928
     10920     10923     10926     10929     10921     10920     10923     10924
     10921     10920     10923     10925     10921     10920     10923     10926
     10922     10920     10923     10924     10922     10920     10923     10925
     10922     10920     10923     10926     10923     10926     10929     10930
     10923     10926     10929     10931     10923     10926     10929     10932
     10924     10923     10926     10927     10924     10923     10926     10928
     10924     10923     10926     10929     10925     10923     10926     10927
     10925     10923     10926     10928     10925     10923     10926     10929
     10926     10929     10932     10933     10926     10929     10932     10934
     10926     10929     10932     10935     10927     10926     10929     10930
     10927     10926     10929     10931     10927     10926     10929     10932
     10928     10926     10929     10930     10928     10926     10929     10931
     10928     10926     10929     10932     10929     10932     10935     10936
     10929     10932     10935     10937     10929     10932     10935     10938
     10930     10929     10932     10933     10930     10929     10932     10934
     10930     10929     10932     10935     10931     10929     10932     10933
     10931     10929     10932     10934     10931     10929     10932     10935
     10932     10935     10938     10939     10932     10935     10938     10940
     10932     10935     10938     10941     10933     10932     10935     10936
     10933     10932     10935     10937     10933     10932     10935     10938
     10934     10932     10935     10936     10934     10932     10935     10937
     10934     10932     10935     10938     10936     10935     10938     10939
     10936     10935     10938     10940     10936     10935     10938     10941
     10937     10935     10938     10939     10937     10935     10938     10940
     10937     10935     10938     10941     10942     10945     10948     10949
     10942     10945     10948     10950     10942     10945     10948     10951
     10943     10942     10945     10946     10943     10942     10945     10947
     10943     10942     10945     10948     10944     10942     10945     10946
     10944     10942     10945     10947     10944     10942     10945     10948
     10945     10948     10951     10952     10945     10948     10951     10953
     10945     10948     10951     10954     10946     10945     10948     10949
     10946     10945     10948     10950     10946     10945     10948     10951
     10947     10945     10948     10949     10947     10945     10948     10950
     10947     10945     10948     10951     10948     10951     10954     10955
     10948     10951     10954     10956     10948     10951     10954     10957
     10949     10948     10951     10952     10949     10948     10951     10953
     10949     10948     10951     10954     10950     10948     10951     10952
     10950     10948     10951     10953     10950     10948     10951     10954
     10951     10954     10957     10958     10951     10954     10957     10959
     10951     10954     10957     10960     10952     10951     10954     10955
     10952     10951     10954     10956     10952     10951     10954     10957
     10953     10951     10954     10955     10953     10951     10954     10956
     10953     10951     10954     10957     10954     10957     10960     10961
     10954     10957     10960     10962     10955     10954     10957     10958
     10955     10954     10957     10959     10955     10954     10957     10960
     10956     10954     10957     10958     10956     10954     10957     10959
     10956     10954     10957     10960     10957     10960     10962     10963
     10957     10960     10962     10964     10958     10957     10960     10961
     10958     10957     10960     10962     10959     10957     10960     10961
     10959     10957     10960     10962     10960     10962     10964     10965
     10960     10962     10964     10966     10960     10962     10964     10967
     10961     10960     10962     10963     10961     10960     10962     10964
     10962     10964     10967     10968     10962     10964     10967     10969
     10962     10964     10967     10970     10963     10962     10964     10965
     10963     10962     10964     10966     10963     10962     10964     10967
     10964     10967     10970     10971     10964     10967     10970     10972
     10964     10967     10970     10973     10965     10964     10967     10968
     10965     10964     10967     10969     10965     10964     10967     10970
     10966     10964     10967     10968     10966     10964     10967     10969
     10966     10964     10967     10970     10967     10970     10973     10974
     10967     10970     10973     10975     10967     10970     10973     10976
     10968     10967     10970     10971     10968     10967     10970     10972
     10968     10967     10970     10973     10969     10967     10970     10971
     10969     10967     10970     10972     10969     10967     10970     10973
     10970     10973     10976     10977     10970     10973     10976     10978
     10970     10973     10976     10979     10971     10970     10973     10974
     10971     10970     10973     10975     10971     10970     10973     10976
     10972     10970     10973     10974     10972     10970     10973     10975
     10972     10970     10973     10976     10973     10976     10979     10980
     10973     10976     10979     10981     10973     10976     10979     10982
     10974     10973     10976     10977     10974     10973     10976     10978
     10974     10973     10976     10979     10975     10973     10976     10977
     10975     10973     10976     10978     10975     10973     10976     10979
     10976     10979     10982     10983     10976     10979     10982     10984
     10976     10979     10982     10985     10977     10976     10979     10980
     10977     10976     10979     10981     10977     10976     10979     10982
     10978     10976     10979     10980     10978     10976     10979     10981
     10978     10976     10979     10982     10979     10982     10985     10986
     10979     10982     10985     10987     10979     10982     10985     10988
     10980     10979     10982     10983     10980     10979     10982     10984
     10980     10979     10982     10985     10981     10979     10982     10983
     10981     10979     10982     10984     10981     10979     10982     10985
     10983     10982     10985     10986     10983     10982     10985     10987
     10983     10982     10985     10988     10984     10982     10985     10986
     10984     10982     10985     10987     10984     10982     10985     10988
     10989     10990     11005     11006     10989     10990     11005     11007
     10989     10990     11005     11011     10990     10989     10993     10994
     10990     10989     10993     10995     10990     10989     10993     10996
     10990     10989     10997     10998     10990     10989     10997     10999
     10990     10989     10997     11000     10990     10989     11001     11002
     10990     10989     11001     11003     10990     10989     11001     11004
     10990     11005     11011     11008     10991     10990     10989     10993
     10991     10990     10989     10997     10991     10990     10989     11001
     10991     10990     11005     11006     10991     10990     11005     11007
     10991     10990     11005     11011     10992     10990     10989     10993
     10992     10990     10989     10997     10992     10990     10989     11001
     10992     10990     11005     11006     10992     10990     11005     11007
     10992     10990     11005     11011     10993     10989     10990     11005
     10993     10989     10997     10998     10993     10989     10997     10999
     10993     10989     10997     11000     10993     10989     11001     11002
     10993     10989     11001     11003     10993     10989     11001     11004
     10994     10993     10989     10997     10994     10993     10989     11001
     10995     10993     10989     10997     10995     10993     10989     11001
     10996     10993     10989     10997     10996     10993     10989     11001
     10997     10989     10990     11005     10997     10989     11001     11002
     10997     10989     11001     11003     10997     10989     11001     11004
     10998     10997     10989     11001     10999     10997     10989     11001
     11000     10997     10989     11001     11001     10989     10990     11005
     11005     11011     11008     11009     11005     11011     11008     11010
     11005     11011     11008     11012     11006     11005     11011     11008
     11007     11005     11011     11008     11008     11012     11013     11014
     11008     11012     11013     11015     11008     11012     11013     11016
     11009     11008     11012     11013     11010     11008     11012     11013
     11011     11008     11012     11013     11012     11013     11016     11017
     11012     11013     11016     11018     11012     11013     11016     11024
     11013     11016     11018     11019     11013     11016     11024     11025
     11013     11016     11024     11026     11013     11016     11024     11027
     11014     11013     11016     11017     11014     11013     11016     11018
     11014     11013     11016     11024     11015     11013     11016     11017
     11015     11013     11016     11018     11015     11013     11016     11024
     11016     11018     11019     11020     11016     11018     11019     11021
     11016     11024     11027     11028     11017     11016     11018     11019
     11017     11016     11024     11025     11017     11016     11024     11026
     11017     11016     11024     11027     11018     11016     11024     11025
     11018     11016     11024     11026     11018     11016     11024     11027
     11018     11019     11021     11022     11018     11019     11021     11023
     11018     11019     11021     11033     11019     11018     11016     11024
     11019     11021     11033     11034     11019     11021     11033     11035
     11019     11021     11033     11036     11020     11019     11021     11022
     11020     11019     11021     11023     11020     11019     11021     11033
     11021     11033     11036     11037     11021     11033     11036     11038
     11021     11033     11036     11039     11022     11021     11033     11034
     11022     11021     11033     11035     11022     11021     11033     11036
     11023     11021     11033     11034     11023     11021     11033     11035
     11023     11021     11033     11036     11024     11027     11028     11029
     11024     11027     11028     11030     11025     11024     11027     11028
     11026     11024     11027     11028     11027     11028     11030     11031
     11027     11028     11030     11032     11027     11028     11030     11080
     11028     11030     11080     11081     11028     11030     11080     11082
     11028     11030     11080     11083     11029     11028     11030     11031
     11029     11028     11030     11032     11029     11028     11030     11080
     11030     11080     11083     11084     11030     11080     11083     11085
     11030     11080     11083     11086     11031     11030     11080     11081
     11031     11030     11080     11082     11031     11030     11080     11083
     11032     11030     11080     11081     11032     11030     11080     11082
     11032     11030     11080     11083     11033     11036     11039     11040
     11033     11036     11039     11041     11033     11036     11039     11042
     11034     11033     11036     11037     11034     11033     11036     11038
     11034     11033     11036     11039     11035     11033     11036     11037
     11035     11033     11036     11038     11035     11033     11036     11039
     11036     11039     11042     11043     11036     11039     11042     11044
     11036     11039     11042     11045     11037     11036     11039     11040
     11037     11036     11039     11041     11037     11036     11039     11042
     11038     11036     11039     11040     11038     11036     11039     11041
     11038     11036     11039     11042     11039     11042     11045     11046
     11039     11042     11045     11047     11039     11042     11045     11048
     11040     11039     11042     11043     11040     11039     11042     11044
     11040     11039     11042     11045     11041     11039     11042     11043
     11041     11039     11042     11044     11041     11039     11042     11045
     11042     11045     11048     11049     11042     11045     11048     11050
     11042     11045     11048     11051     11043     11042     11045     11046
     11043     11042     11045     11047     11043     11042     11045     11048
     11044     11042     11045     11046     11044     11042     11045     11047
     11044     11042     11045     11048     11045     11048     11051     11052
     11045     11048     11051     11053     11046     11045     11048     11049
     11046     11045     11048     11050     11046     11045     11048     11051
     11047     11045     11048     11049     11047     11045     11048     11050
     11047     11045     11048     11051     11048     11051     11053     11054
     11048     11051     11053     11055     11049     11048     11051     11052
     11049     11048     11051     11053     11050     11048     11051     11052
     11050     11048     11051     11053     11051     11053     11055     11056
     11051     11053     11055     11057     11051     11053     11055     11058
     11052     11051     11053     11054     11052     11051     11053     11055
     11053     11055     11058     11059     11053     11055     11058     11060
     11053     11055     11058     11061     11054     11053     11055     11056
     11054     11053     11055     11057     11054     11053     11055     11058
     11055     11058     11061     11062     11055     11058     11061     11063
     11055     11058     11061     11064     11056     11055     11058     11059
     11056     11055     11058     11060     11056     11055     11058     11061
     11057     11055     11058     11059     11057     11055     11058     11060
     11057     11055     11058     11061     11058     11061     11064     11065
     11058     11061     11064     11066     11058     11061     11064     11067
     11059     11058     11061     11062     11059     11058     11061     11063
     11059     11058     11061     11064     11060     11058     11061     11062
     11060     11058     11061     11063     11060     11058     11061     11064
     11061     11064     11067     11068     11061     11064     11067     11069
     11061     11064     11067     11070     11062     11061     11064     11065
     11062     11061     11064     11066     11062     11061     11064     11067
     11063     11061     11064     11065     11063     11061     11064     11066
     11063     11061     11064     11067     11064     11067     11070     11071
     11064     11067     11070     11072     11064     11067     11070     11073
     11065     11064     11067     11068     11065     11064     11067     11069
     11065     11064     11067     11070     11066     11064     11067     11068
     11066     11064     11067     11069     11066     11064     11067     11070
     11067     11070     11073     11074     11067     11070     11073     11075
     11067     11070     11073     11076     11068     11067     11070     11071
     11068     11067     11070     11072     11068     11067     11070     11073
     11069     11067     11070     11071     11069     11067     11070     11072
     11069     11067     11070     11073     11070     11073     11076     11077
     11070     11073     11076     11078     11070     11073     11076     11079
     11071     11070     11073     11074     11071     11070     11073     11075
     11071     11070     11073     11076     11072     11070     11073     11074
     11072     11070     11073     11075     11072     11070     11073     11076
     11074     11073     11076     11077     11074     11073     11076     11078
     11074     11073     11076     11079     11075     11073     11076     11077
     11075     11073     11076     11078     11075     11073     11076     11079
     11080     11083     11086     11087     11080     11083     11086     11088
     11080     11083     11086     11089     11081     11080     11083     11084
     11081     11080     11083     11085     11081     11080     11083     11086
     11082     11080     11083     11084     11082     11080     11083     11085
     11082     11080     11083     11086     11083     11086     11089     11090
     11083     11086     11089     11091     11083     11086     11089     11092
     11084     11083     11086     11087     11084     11083     11086     11088
     11084     11083     11086     11089     11085     11083     11086     11087
     11085     11083     11086     11088     11085     11083     11086     11089
     11086     11089     11092     11093     11086     11089     11092     11094
     11086     11089     11092     11095     11087     11086     11089     11090
     11087     11086     11089     11091     11087     11086     11089     11092
     11088     11086     11089     11090     11088     11086     11089     11091
     11088     11086     11089     11092     11089     11092     11095     11096
     11089     11092     11095     11097     11089     11092     11095     11098
     11090     11089     11092     11093     11090     11089     11092     11094
     11090     11089     11092     11095     11091     11089     11092     11093
     11091     11089     11092     11094     11091     11089     11092     11095
     11092     11095     11098     11099     11092     11095     11098     11100
     11093     11092     11095     11096     11093     11092     11095     11097
     11093     11092     11095     11098     11094     11092     11095     11096
     11094     11092     11095     11097     11094     11092     11095     11098
     11095     11098     11100     11101     11095     11098     11100     11102
     11096     11095     11098     11099     11096     11095     11098     11100
     11097     11095     11098     11099     11097     11095     11098     11100
     11098     11100     11102     11103     11098     11100     11102     11104
     11098     11100     11102     11105     11099     11098     11100     11101
     11099     11098     11100     11102     11100     11102     11105     11106
     11100     11102     11105     11107     11100     11102     11105     11108
     11101     11100     11102     11103     11101     11100     11102     11104
     11101     11100     11102     11105     11102     11105     11108     11109
     11102     11105     11108     11110     11102     11105     11108     11111
     11103     11102     11105     11106     11103     11102     11105     11107
     11103     11102     11105     11108     11104     11102     11105     11106
     11104     11102     11105     11107     11104     11102     11105     11108
     11105     11108     11111     11112     11105     11108     11111     11113
     11105     11108     11111     11114     11106     11105     11108     11109
     11106     11105     11108     11110     11106     11105     11108     11111
     11107     11105     11108     11109     11107     11105     11108     11110
     11107     11105     11108     11111     11108     11111     11114     11115
     11108     11111     11114     11116     11108     11111     11114     11117
     11109     11108     11111     11112     11109     11108     11111     11113
     11109     11108     11111     11114     11110     11108     11111     11112
     11110     11108     11111     11113     11110     11108     11111     11114
     11111     11114     11117     11118     11111     11114     11117     11119
     11111     11114     11117     11120     11112     11111     11114     11115
     11112     11111     11114     11116     11112     11111     11114     11117
     11113     11111     11114     11115     11113     11111     11114     11116
     11113     11111     11114     11117     11114     11117     11120     11121
     11114     11117     11120     11122     11114     11117     11120     11123
     11115     11114     11117     11118     11115     11114     11117     11119
     11115     11114     11117     11120     11116     11114     11117     11118
     11116     11114     11117     11119     11116     11114     11117     11120
     11117     11120     11123     11124     11117     11120     11123     11125
     11117     11120     11123     11126     11118     11117     11120     11121
     11118     11117     11120     11122     11118     11117     11120     11123
     11119     11117     11120     11121     11119     11117     11120     11122
     11119     11117     11120     11123     11121     11120     11123     11124
     11121     11120     11123     11125     11121     11120     11123     11126
     11122     11120     11123     11124     11122     11120     11123     11125
     11122     11120     11123     11126     11127     11128     11143     11144
     11127     11128     11143     11145     11127     11128     11143     11149
     11128     11127     11131     11132     11128     11127     11131     11133
     11128     11127     11131     11134     11128     11127     11135     11136
     11128     11127     11135     11137     11128     11127     11135     11138
     11128     11127     11139     11140     11128     11127     11139     11141
     11128     11127     11139     11142     11128     11143     11149     11146
     11129     11128     11127     11131     11129     11128     11127     11135
     11129     11128     11127     11139     11129     11128     11143     11144
     11129     11128     11143     11145     11129     11128     11143     11149
     11130     11128     11127     11131     11130     11128     11127     11135
     11130     11128     11127     11139     11130     11128     11143     11144
     11130     11128     11143     11145     11130     11128     11143     11149
     11131     11127     11128     11143     11131     11127     11135     11136
     11131     11127     11135     11137     11131     11127     11135     11138
     11131     11127     11139     11140     11131     11127     11139     11141
     11131     11127     11139     11142     11132     11131     11127     11135
     11132     11131     11127     11139     11133     11131     11127     11135
     11133     11131     11127     11139     11134     11131     11127     11135
     11134     11131     11127     11139     11135     11127     11128     11143
     11135     11127     11139     11140     11135     11127     11139     11141
     11135     11127     11139     11142     11136     11135     11127     11139
     11137     11135     11127     11139     11138     11135     11127     11139
     11139     11127     11128     11143     11143     11149     11146     11147
     11143     11149     11146     11148     11143     11149     11146     11150
     11144     11143     11149     11146     11145     11143     11149     11146
     11146     11150     11151     11152     11146     11150     11151     11153
     11146     11150     11151     11154     11147     11146     11150     11151
     11148     11146     11150     11151     11149     11146     11150     11151
     11150     11151     11154     11155     11150     11151     11154     11156
     11150     11151     11154     11162     11151     11154     11156     11157
     11151     11154     11162     11163     11151     11154     11162     11164
     11151     11154     11162     11165     11152     11151     11154     11155
     11152     11151     11154     11156     11152     11151     11154     11162
     11153     11151     11154     11155     11153     11151     11154     11156
     11153     11151     11154     11162     11154     11156     11157     11158
     11154     11156     11157     11159     11154     11162     11165     11166
     11155     11154     11156     11157     11155     11154     11162     11163
     11155     11154     11162     11164     11155     11154     11162     11165
     11156     11154     11162     11163     11156     11154     11162     11164
     11156     11154     11162     11165     11156     11157     11159     11160
     11156     11157     11159     11161     11156     11157     11159     11171
     11157     11156     11154     11162     11157     11159     11171     11172
     11157     11159     11171     11173     11157     11159     11171     11174
     11158     11157     11159     11160     11158     11157     11159     11161
     11158     11157     11159     11171     11159     11171     11174     11175
     11159     11171     11174     11176     11159     11171     11174     11177
     11160     11159     11171     11172     11160     11159     11171     11173
     11160     11159     11171     11174     11161     11159     11171     11172
     11161     11159     11171     11173     11161     11159     11171     11174
     11162     11165     11166     11167     11162     11165     11166     11168
     11163     11162     11165     11166     11164     11162     11165     11166
     11165     11166     11168     11169     11165     11166     11168     11170
     11165     11166     11168     11218     11166     11168     11218     11219
     11166     11168     11218     11220     11166     11168     11218     11221
     11167     11166     11168     11169     11167     11166     11168     11170
     11167     11166     11168     11218     11168     11218     11221     11222
     11168     11218     11221     11223     11168     11218     11221     11224
     11169     11168     11218     11219     11169     11168     11218     11220
     11169     11168     11218     11221     11170     11168     11218     11219
     11170     11168     11218     11220     11170     11168     11218     11221
     11171     11174     11177     11178     11171     11174     11177     11179
     11171     11174     11177     11180     11172     11171     11174     11175
     11172     11171     11174     11176     11172     11171     11174     11177
     11173     11171     11174     11175     11173     11171     11174     11176
     11173     11171     11174     11177     11174     11177     11180     11181
     11174     11177     11180     11182     11174     11177     11180     11183
     11175     11174     11177     11178     11175     11174     11177     11179
     11175     11174     11177     11180     11176     11174     11177     11178
     11176     11174     11177     11179     11176     11174     11177     11180
     11177     11180     11183     11184     11177     11180     11183     11185
     11177     11180     11183     11186     11178     11177     11180     11181
     11178     11177     11180     11182     11178     11177     11180     11183
     11179     11177     11180     11181     11179     11177     11180     11182
     11179     11177     11180     11183     11180     11183     11186     11187
     11180     11183     11186     11188     11180     11183     11186     11189
     11181     11180     11183     11184     11181     11180     11183     11185
     11181     11180     11183     11186     11182     11180     11183     11184
     11182     11180     11183     11185     11182     11180     11183     11186
     11183     11186     11189     11190     11183     11186     11189     11191
     11184     11183     11186     11187     11184     11183     11186     11188
     11184     11183     11186     11189     11185     11183     11186     11187
     11185     11183     11186     11188     11185     11183     11186     11189
     11186     11189     11191     11192     11186     11189     11191     11193
     11187     11186     11189     11190     11187     11186     11189     11191
     11188     11186     11189     11190     11188     11186     11189     11191
     11189     11191     11193     11194     11189     11191     11193     11195
     11189     11191     11193     11196     11190     11189     11191     11192
     11190     11189     11191     11193     11191     11193     11196     11197
     11191     11193     11196     11198     11191     11193     11196     11199
     11192     11191     11193     11194     11192     11191     11193     11195
     11192     11191     11193     11196     11193     11196     11199     11200
     11193     11196     11199     11201     11193     11196     11199     11202
     11194     11193     11196     11197     11194     11193     11196     11198
     11194     11193     11196     11199     11195     11193     11196     11197
     11195     11193     11196     11198     11195     11193     11196     11199
     11196     11199     11202     11203     11196     11199     11202     11204
     11196     11199     11202     11205     11197     11196     11199     11200
     11197     11196     11199     11201     11197     11196     11199     11202
     11198     11196     11199     11200     11198     11196     11199     11201
     11198     11196     11199     11202     11199     11202     11205     11206
     11199     11202     11205     11207     11199     11202     11205     11208
     11200     11199     11202     11203     11200     11199     11202     11204
     11200     11199     11202     11205     11201     11199     11202     11203
     11201     11199     11202     11204     11201     11199     11202     11205
     11202     11205     11208     11209     11202     11205     11208     11210
     11202     11205     11208     11211     11203     11202     11205     11206
     11203     11202     11205     11207     11203     11202     11205     11208
     11204     11202     11205     11206     11204     11202     11205     11207
     11204     11202     11205     11208     11205     11208     11211     11212
     11205     11208     11211     11213     11205     11208     11211     11214
     11206     11205     11208     11209     11206     11205     11208     11210
     11206     11205     11208     11211     11207     11205     11208     11209
     11207     11205     11208     11210     11207     11205     11208     11211
     11208     11211     11214     11215     11208     11211     11214     11216
     11208     11211     11214     11217     11209     11208     11211     11212
     11209     11208     11211     11213     11209     11208     11211     11214
     11210     11208     11211     11212     11210     11208     11211     11213
     11210     11208     11211     11214     11212     11211     11214     11215
     11212     11211     11214     11216     11212     11211     11214     11217
     11213     11211     11214     11215     11213     11211     11214     11216
     11213     11211     11214     11217     11218     11221     11224     11225
     11218     11221     11224     11226     11218     11221     11224     11227
     11219     11218     11221     11222     11219     11218     11221     11223
     11219     11218     11221     11224     11220     11218     11221     11222
     11220     11218     11221     11223     11220     11218     11221     11224
     11221     11224     11227     11228     11221     11224     11227     11229
     11221     11224     11227     11230     11222     11221     11224     11225
     11222     11221     11224     11226     11222     11221     11224     11227
     11223     11221     11224     11225     11223     11221     11224     11226
     11223     11221     11224     11227     11224     11227     11230     11231
     11224     11227     11230     11232     11224     11227     11230     11233
     11225     11224     11227     11228     11225     11224     11227     11229
     11225     11224     11227     11230     11226     11224     11227     11228
     11226     11224     11227     11229     11226     11224     11227     11230
     11227     11230     11233     11234     11227     11230     11233     11235
     11227     11230     11233     11236     11228     11227     11230     11231
     11228     11227     11230     11232     11228     11227     11230     11233
     11229     11227     11230     11231     11229     11227     11230     11232
     11229     11227     11230     11233     11230     11233     11236     11237
     11230     11233     11236     11238     11231     11230     11233     11234
     11231     11230     11233     11235     11231     11230     11233     11236
     11232     11230     11233     11234     11232     11230     11233     11235
     11232     11230     11233     11236     11233     11236     11238     11239
     11233     11236     11238     11240     11234     11233     11236     11237
     11234     11233     11236     11238     11235     11233     11236     11237
     11235     11233     11236     11238     11236     11238     11240     11241
     11236     11238     11240     11242     11236     11238     11240     11243
     11237     11236     11238     11239     11237     11236     11238     11240
     11238     11240     11243     11244     11238     11240     11243     11245
     11238     11240     11243     11246     11239     11238     11240     11241
     11239     11238     11240     11242     11239     11238     11240     11243
     11240     11243     11246     11247     11240     11243     11246     11248
     11240     11243     11246     11249     11241     11240     11243     11244
     11241     11240     11243     11245     11241     11240     11243     11246
     11242     11240     11243     11244     11242     11240     11243     11245
     11242     11240     11243     11246     11243     11246     11249     11250
     11243     11246     11249     11251     11243     11246     11249     11252
     11244     11243     11246     11247     11244     11243     11246     11248
     11244     11243     11246     11249     11245     11243     11246     11247
     11245     11243     11246     11248     11245     11243     11246     11249
     11246     11249     11252     11253     11246     11249     11252     11254
     11246     11249     11252     11255     11247     11246     11249     11250
     11247     11246     11249     11251     11247     11246     11249     11252
     11248     11246     11249     11250     11248     11246     11249     11251
     11248     11246     11249     11252     11249     11252     11255     11256
     11249     11252     11255     11257     11249     11252     11255     11258
     11250     11249     11252     11253     11250     11249     11252     11254
     11250     11249     11252     11255     11251     11249     11252     11253
     11251     11249     11252     11254     11251     11249     11252     11255
     11252     11255     11258     11259     11252     11255     11258     11260
     11252     11255     11258     11261     11253     11252     11255     11256
     11253     11252     11255     11257     11253     11252     11255     11258
     11254     11252     11255     11256     11254     11252     11255     11257
     11254     11252     11255     11258     11255     11258     11261     11262
     11255     11258     11261     11263     11255     11258     11261     11264
     11256     11255     11258     11259     11256     11255     11258     11260
     11256     11255     11258     11261     11257     11255     11258     11259
     11257     11255     11258     11260     11257     11255     11258     11261
     11259     11258     11261     11262     11259     11258     11261     11263
     11259     11258     11261     11264     11260     11258     11261     11262
     11260     11258     11261     11263     11260     11258     11261     11264
     11265     11266     11281     11282     11265     11266     11281     11283
     11265     11266     11281     11287     11266     11265     11269     11270
     11266     11265     11269     11271     11266     11265     11269     11272
     11266     11265     11273     11274     11266     11265     11273     11275
     11266     11265     11273     11276     11266     11265     11277     11278
     11266     11265     11277     11279     11266     11265     11277     11280
     11266     11281     11287     11284     11267     11266     11265     11269
     11267     11266     11265     11273     11267     11266     11265     11277
     11267     11266     11281     11282     11267     11266     11281     11283
     11267     11266     11281     11287     11268     11266     11265     11269
     11268     11266     11265     11273     11268     11266     11265     11277
     11268     11266     11281     11282     11268     11266     11281     11283
     11268     11266     11281     11287     11269     11265     11266     11281
     11269     11265     11273     11274     11269     11265     11273     11275
     11269     11265     11273     11276     11269     11265     11277     11278
     11269     11265     11277     11279     11269     11265     11277     11280
     11270     11269     11265     11273     11270     11269     11265     11277
     11271     11269     11265     11273     11271     11269     11265     11277
     11272     11269     11265     11273     11272     11269     11265     11277
     11273     11265     11266     11281     11273     11265     11277     11278
     11273     11265     11277     11279     11273     11265     11277     11280
     11274     11273     11265     11277     11275     11273     11265     11277
     11276     11273     11265     11277     11277     11265     11266     11281
     11281     11287     11284     11285     11281     11287     11284     11286
     11281     11287     11284     11288     11282     11281     11287     11284
     11283     11281     11287     11284     11284     11288     11289     11290
     11284     11288     11289     11291     11284     11288     11289     11292
     11285     11284     11288     11289     11286     11284     11288     11289
     11287     11284     11288     11289     11288     11289     11292     11293
     11288     11289     11292     11294     11288     11289     11292     11300
     11289     11292     11294     11295     11289     11292     11300     11301
     11289     11292     11300     11302     11289     11292     11300     11303
     11290     11289     11292     11293     11290     11289     11292     11294
     11290     11289     11292     11300     11291     11289     11292     11293
     11291     11289     11292     11294     11291     11289     11292     11300
     11292     11294     11295     11296     11292     11294     11295     11297
     11292     11300     11303     11304     11293     11292     11294     11295
     11293     11292     11300     11301     11293     11292     11300     11302
     11293     11292     11300     11303     11294     11292     11300     11301
     11294     11292     11300     11302     11294     11292     11300     11303
     11294     11295     11297     11298     11294     11295     11297     11299
     11294     11295     11297     11309     11295     11294     11292     11300
     11295     11297     11309     11310     11295     11297     11309     11311
     11295     11297     11309     11312     11296     11295     11297     11298
     11296     11295     11297     11299     11296     11295     11297     11309
     11297     11309     11312     11313     11297     11309     11312     11314
     11297     11309     11312     11315     11298     11297     11309     11310
     11298     11297     11309     11311     11298     11297     11309     11312
     11299     11297     11309     11310     11299     11297     11309     11311
     11299     11297     11309     11312     11300     11303     11304     11305
     11300     11303     11304     11306     11301     11300     11303     11304
     11302     11300     11303     11304     11303     11304     11306     11307
     11303     11304     11306     11308     11303     11304     11306     11356
     11304     11306     11356     11357     11304     11306     11356     11358
     11304     11306     11356     11359     11305     11304     11306     11307
     11305     11304     11306     11308     11305     11304     11306     11356
     11306     11356     11359     11360     11306     11356     11359     11361
     11306     11356     11359     11362     11307     11306     11356     11357
     11307     11306     11356     11358     11307     11306     11356     11359
     11308     11306     11356     11357     11308     11306     11356     11358
     11308     11306     11356     11359     11309     11312     11315     11316
     11309     11312     11315     11317     11309     11312     11315     11318
     11310     11309     11312     11313     11310     11309     11312     11314
     11310     11309     11312     11315     11311     11309     11312     11313
     11311     11309     11312     11314     11311     11309     11312     11315
     11312     11315     11318     11319     11312     11315     11318     11320
     11312     11315     11318     11321     11313     11312     11315     11316
     11313     11312     11315     11317     11313     11312     11315     11318
     11314     11312     11315     11316     11314     11312     11315     11317
     11314     11312     11315     11318     11315     11318     11321     11322
     11315     11318     11321     11323     11315     11318     11321     11324
     11316     11315     11318     11319     11316     11315     11318     11320
     11316     11315     11318     11321     11317     11315     11318     11319
     11317     11315     11318     11320     11317     11315     11318     11321
     11318     11321     11324     11325     11318     11321     11324     11326
     11318     11321     11324     11327     11319     11318     11321     11322
     11319     11318     11321     11323     11319     11318     11321     11324
     11320     11318     11321     11322     11320     11318     11321     11323
     11320     11318     11321     11324     11321     11324     11327     11328
     11321     11324     11327     11329     11322     11321     11324     11325
     11322     11321     11324     11326     11322     11321     11324     11327
     11323     11321     11324     11325     11323     11321     11324     11326
     11323     11321     11324     11327     11324     11327     11329     11330
     11324     11327     11329     11331     11325     11324     11327     11328
     11325     11324     11327     11329     11326     11324     11327     11328
     11326     11324     11327     11329     11327     11329     11331     11332
     11327     11329     11331     11333     11327     11329     11331     11334
     11328     11327     11329     11330     11328     11327     11329     11331
     11329     11331     11334     11335     11329     11331     11334     11336
     11329     11331     11334     11337     11330     11329     11331     11332
     11330     11329     11331     11333     11330     11329     11331     11334
     11331     11334     11337     11338     11331     11334     11337     11339
     11331     11334     11337     11340     11332     11331     11334     11335
     11332     11331     11334     11336     11332     11331     11334     11337
     11333     11331     11334     11335     11333     11331     11334     11336
     11333     11331     11334     11337     11334     11337     11340     11341
     11334     11337     11340     11342     11334     11337     11340     11343
     11335     11334     11337     11338     11335     11334     11337     11339
     11335     11334     11337     11340     11336     11334     11337     11338
     11336     11334     11337     11339     11336     11334     11337     11340
     11337     11340     11343     11344     11337     11340     11343     11345
     11337     11340     11343     11346     11338     11337     11340     11341
     11338     11337     11340     11342     11338     11337     11340     11343
     11339     11337     11340     11341     11339     11337     11340     11342
     11339     11337     11340     11343     11340     11343     11346     11347
     11340     11343     11346     11348     11340     11343     11346     11349
     11341     11340     11343     11344     11341     11340     11343     11345
     11341     11340     11343     11346     11342     11340     11343     11344
     11342     11340     11343     11345     11342     11340     11343     11346
     11343     11346     11349     11350     11343     11346     11349     11351
     11343     11346     11349     11352     11344     11343     11346     11347
     11344     11343     11346     11348     11344     11343     11346     11349
     11345     11343     11346     11347     11345     11343     11346     11348
     11345     11343     11346     11349     11346     11349     11352     11353
     11346     11349     11352     11354     11346     11349     11352     11355
     11347     11346     11349     11350     11347     11346     11349     11351
     11347     11346     11349     11352     11348     11346     11349     11350
     11348     11346     11349     11351     11348     11346     11349     11352
     11350     11349     11352     11353     11350     11349     11352     11354
     11350     11349     11352     11355     11351     11349     11352     11353
     11351     11349     11352     11354     11351     11349     11352     11355
     11356     11359     11362     11363     11356     11359     11362     11364
     11356     11359     11362     11365     11357     11356     11359     11360
     11357     11356     11359     11361     11357     11356     11359     11362
     11358     11356     11359     11360     11358     11356     11359     11361
     11358     11356     11359     11362     11359     11362     11365     11366
     11359     11362     11365     11367     11359     11362     11365     11368
     11360     11359     11362     11363     11360     11359     11362     11364
     11360     11359     11362     11365     11361     11359     11362     11363
     11361     11359     11362     11364     11361     11359     11362     11365
     11362     11365     11368     11369     11362     11365     11368     11370
     11362     11365     11368     11371     11363     11362     11365     11366
     11363     11362     11365     11367     11363     11362     11365     11368
     11364     11362     11365     11366     11364     11362     11365     11367
     11364     11362     11365     11368     11365     11368     11371     11372
     11365     11368     11371     11373     11365     11368     11371     11374
     11366     11365     11368     11369     11366     11365     11368     11370
     11366     11365     11368     11371     11367     11365     11368     11369
     11367     11365     11368     11370     11367     11365     11368     11371
     11368     11371     11374     11375     11368     11371     11374     11376
     11369     11368     11371     11372     11369     11368     11371     11373
     11369     11368     11371     11374     11370     11368     11371     11372
     11370     11368     11371     11373     11370     11368     11371     11374
     11371     11374     11376     11377     11371     11374     11376     11378
     11372     11371     11374     11375     11372     11371     11374     11376
     11373     11371     11374     11375     11373     11371     11374     11376
     11374     11376     11378     11379     11374     11376     11378     11380
     11374     11376     11378     11381     11375     11374     11376     11377
     11375     11374     11376     11378     11376     11378     11381     11382
     11376     11378     11381     11383     11376     11378     11381     11384
     11377     11376     11378     11379     11377     11376     11378     11380
     11377     11376     11378     11381     11378     11381     11384     11385
     11378     11381     11384     11386     11378     11381     11384     11387
     11379     11378     11381     11382     11379     11378     11381     11383
     11379     11378     11381     11384     11380     11378     11381     11382
     11380     11378     11381     11383     11380     11378     11381     11384
     11381     11384     11387     11388     11381     11384     11387     11389
     11381     11384     11387     11390     11382     11381     11384     11385
     11382     11381     11384     11386     11382     11381     11384     11387
     11383     11381     11384     11385     11383     11381     11384     11386
     11383     11381     11384     11387     11384     11387     11390     11391
     11384     11387     11390     11392     11384     11387     11390     11393
     11385     11384     11387     11388     11385     11384     11387     11389
     11385     11384     11387     11390     11386     11384     11387     11388
     11386     11384     11387     11389     11386     11384     11387     11390
     11387     11390     11393     11394     11387     11390     11393     11395
     11387     11390     11393     11396     11388     11387     11390     11391
     11388     11387     11390     11392     11388     11387     11390     11393
     11389     11387     11390     11391     11389     11387     11390     11392
     11389     11387     11390     11393     11390     11393     11396     11397
     11390     11393     11396     11398     11390     11393     11396     11399
     11391     11390     11393     11394     11391     11390     11393     11395
     11391     11390     11393     11396     11392     11390     11393     11394
     11392     11390     11393     11395     11392     11390     11393     11396
     11393     11396     11399     11400     11393     11396     11399     11401
     11393     11396     11399     11402     11394     11393     11396     11397
     11394     11393     11396     11398     11394     11393     11396     11399
     11395     11393     11396     11397     11395     11393     11396     11398
     11395     11393     11396     11399     11397     11396     11399     11400
     11397     11396     11399     11401     11397     11396     11399     11402
     11398     11396     11399     11400     11398     11396     11399     11401
     11398     11396     11399     11402     11403     11404     11419     11420
     11403     11404     11419     11421     11403     11404     11419     11425
     11404     11403     11407     11408     11404     11403     11407     11409
     11404     11403     11407     11410     11404     11403     11411     11412
     11404     11403     11411     11413     11404     11403     11411     11414
     11404     11403     11415     11416     11404     11403     11415     11417
     11404     11403     11415     11418     11404     11419     11425     11422
     11405     11404     11403     11407     11405     11404     11403     11411
     11405     11404     11403     11415     11405     11404     11419     11420
     11405     11404     11419     11421     11405     11404     11419     11425
     11406     11404     11403     11407     11406     11404     11403     11411
     11406     11404     11403     11415     11406     11404     11419     11420
     11406     11404     11419     11421     11406     11404     11419     11425
     11407     11403     11404     11419     11407     11403     11411     11412
     11407     11403     11411     11413     11407     11403     11411     11414
     11407     11403     11415     11416     11407     11403     11415     11417
     11407     11403     11415     11418     11408     11407     11403     11411
     11408     11407     11403     11415     11409     11407     11403     11411
     11409     11407     11403     11415     11410     11407     11403     11411
     11410     11407     11403     11415     11411     11403     11404     11419
     11411     11403     11415     11416     11411     11403     11415     11417
     11411     11403     11415     11418     11412     11411     11403     11415
     11413     11411     11403     11415     11414     11411     11403     11415
     11415     11403     11404     11419     11419     11425     11422     11423
     11419     11425     11422     11424     11419     11425     11422     11426
     11420     11419     11425     11422     11421     11419     11425     11422
     11422     11426     11427     11428     11422     11426     11427     11429
     11422     11426     11427     11430     11423     11422     11426     11427
     11424     11422     11426     11427     11425     11422     11426     11427
     11426     11427     11430     11431     11426     11427     11430     11432
     11426     11427     11430     11438     11427     11430     11432     11433
     11427     11430     11438     11439     11427     11430     11438     11440
     11427     11430     11438     11441     11428     11427     11430     11431
     11428     11427     11430     11432     11428     11427     11430     11438
     11429     11427     11430     11431     11429     11427     11430     11432
     11429     11427     11430     11438     11430     11432     11433     11434
     11430     11432     11433     11435     11430     11438     11441     11442
     11431     11430     11432     11433     11431     11430     11438     11439
     11431     11430     11438     11440     11431     11430     11438     11441
     11432     11430     11438     11439     11432     11430     11438     11440
     11432     11430     11438     11441     11432     11433     11435     11436
     11432     11433     11435     11437     11432     11433     11435     11447
     11433     11432     11430     11438     11433     11435     11447     11448
     11433     11435     11447     11449     11433     11435     11447     11450
     11434     11433     11435     11436     11434     11433     11435     11437
     11434     11433     11435     11447     11435     11447     11450     11451
     11435     11447     11450     11452     11435     11447     11450     11453
     11436     11435     11447     11448     11436     11435     11447     11449
     11436     11435     11447     11450     11437     11435     11447     11448
     11437     11435     11447     11449     11437     11435     11447     11450
     11438     11441     11442     11443     11438     11441     11442     11444
     11439     11438     11441     11442     11440     11438     11441     11442
     11441     11442     11444     11445     11441     11442     11444     11446
     11441     11442     11444     11494     11442     11444     11494     11495
     11442     11444     11494     11496     11442     11444     11494     11497
     11443     11442     11444     11445     11443     11442     11444     11446
     11443     11442     11444     11494     11444     11494     11497     11498
     11444     11494     11497     11499     11444     11494     11497     11500
     11445     11444     11494     11495     11445     11444     11494     11496
     11445     11444     11494     11497     11446     11444     11494     11495
     11446     11444     11494     11496     11446     11444     11494     11497
     11447     11450     11453     11454     11447     11450     11453     11455
     11447     11450     11453     11456     11448     11447     11450     11451
     11448     11447     11450     11452     11448     11447     11450     11453
     11449     11447     11450     11451     11449     11447     11450     11452
     11449     11447     11450     11453     11450     11453     11456     11457
     11450     11453     11456     11458     11450     11453     11456     11459
     11451     11450     11453     11454     11451     11450     11453     11455
     11451     11450     11453     11456     11452     11450     11453     11454
     11452     11450     11453     11455     11452     11450     11453     11456
     11453     11456     11459     11460     11453     11456     11459     11461
     11453     11456     11459     11462     11454     11453     11456     11457
     11454     11453     11456     11458     11454     11453     11456     11459
     11455     11453     11456     11457     11455     11453     11456     11458
     11455     11453     11456     11459     11456     11459     11462     11463
     11456     11459     11462     11464     11456     11459     11462     11465
     11457     11456     11459     11460     11457     11456     11459     11461
     11457     11456     11459     11462     11458     11456     11459     11460
     11458     11456     11459     11461     11458     11456     11459     11462
     11459     11462     11465     11466     11459     11462     11465     11467
     11460     11459     11462     11463     11460     11459     11462     11464
     11460     11459     11462     11465     11461     11459     11462     11463
     11461     11459     11462     11464     11461     11459     11462     11465
     11462     11465     11467     11468     11462     11465     11467     11469
     11463     11462     11465     11466     11463     11462     11465     11467
     11464     11462     11465     11466     11464     11462     11465     11467
     11465     11467     11469     11470     11465     11467     11469     11471
     11465     11467     11469     11472     11466     11465     11467     11468
     11466     11465     11467     11469     11467     11469     11472     11473
     11467     11469     11472     11474     11467     11469     11472     11475
     11468     11467     11469     11470     11468     11467     11469     11471
     11468     11467     11469     11472     11469     11472     11475     11476
     11469     11472     11475     11477     11469     11472     11475     11478
     11470     11469     11472     11473     11470     11469     11472     11474
     11470     11469     11472     11475     11471     11469     11472     11473
     11471     11469     11472     11474     11471     11469     11472     11475
     11472     11475     11478     11479     11472     11475     11478     11480
     11472     11475     11478     11481     11473     11472     11475     11476
     11473     11472     11475     11477     11473     11472     11475     11478
     11474     11472     11475     11476     11474     11472     11475     11477
     11474     11472     11475     11478     11475     11478     11481     11482
     11475     11478     11481     11483     11475     11478     11481     11484
     11476     11475     11478     11479     11476     11475     11478     11480
     11476     11475     11478     11481     11477     11475     11478     11479
     11477     11475     11478     11480     11477     11475     11478     11481
     11478     11481     11484     11485     11478     11481     11484     11486
     11478     11481     11484     11487     11479     11478     11481     11482
     11479     11478     11481     11483     11479     11478     11481     11484
     11480     11478     11481     11482     11480     11478     11481     11483
     11480     11478     11481     11484     11481     11484     11487     11488
     11481     11484     11487     11489     11481     11484     11487     11490
     11482     11481     11484     11485     11482     11481     11484     11486
     11482     11481     11484     11487     11483     11481     11484     11485
     11483     11481     11484     11486     11483     11481     11484     11487
     11484     11487     11490     11491     11484     11487     11490     11492
     11484     11487     11490     11493     11485     11484     11487     11488
     11485     11484     11487     11489     11485     11484     11487     11490
     11486     11484     11487     11488     11486     11484     11487     11489
     11486     11484     11487     11490     11488     11487     11490     11491
     11488     11487     11490     11492     11488     11487     11490     11493
     11489     11487     11490     11491     11489     11487     11490     11492
     11489     11487     11490     11493     11494     11497     11500     11501
     11494     11497     11500     11502     11494     11497     11500     11503
     11495     11494     11497     11498     11495     11494     11497     11499
     11495     11494     11497     11500     11496     11494     11497     11498
     11496     11494     11497     11499     11496     11494     11497     11500
     11497     11500     11503     11504     11497     11500     11503     11505
     11497     11500     11503     11506     11498     11497     11500     11501
     11498     11497     11500     11502     11498     11497     11500     11503
     11499     11497     11500     11501     11499     11497     11500     11502
     11499     11497     11500     11503     11500     11503     11506     11507
     11500     11503     11506     11508     11500     11503     11506     11509
     11501     11500     11503     11504     11501     11500     11503     11505
     11501     11500     11503     11506     11502     11500     11503     11504
     11502     11500     11503     11505     11502     11500     11503     11506
     11503     11506     11509     11510     11503     11506     11509     11511
     11503     11506     11509     11512     11504     11503     11506     11507
     11504     11503     11506     11508     11504     11503     11506     11509
     11505     11503     11506     11507     11505     11503     11506     11508
     11505     11503     11506     11509     11506     11509     11512     11513
     11506     11509     11512     11514     11507     11506     11509     11510
     11507     11506     11509     11511     11507     11506     11509     11512
     11508     11506     11509     11510     11508     11506     11509     11511
     11508     11506     11509     11512     11509     11512     11514     11515
     11509     11512     11514     11516     11510     11509     11512     11513
     11510     11509     11512     11514     11511     11509     11512     11513
     11511     11509     11512     11514     11512     11514     11516     11517
     11512     11514     11516     11518     11512     11514     11516     11519
     11513     11512     11514     11515     11513     11512     11514     11516
     11514     11516     11519     11520     11514     11516     11519     11521
     11514     11516     11519     11522     11515     11514     11516     11517
     11515     11514     11516     11518     11515     11514     11516     11519
     11516     11519     11522     11523     11516     11519     11522     11524
     11516     11519     11522     11525     11517     11516     11519     11520
     11517     11516     11519     11521     11517     11516     11519     11522
     11518     11516     11519     11520     11518     11516     11519     11521
     11518     11516     11519     11522     11519     11522     11525     11526
     11519     11522     11525     11527     11519     11522     11525     11528
     11520     11519     11522     11523     11520     11519     11522     11524
     11520     11519     11522     11525     11521     11519     11522     11523
     11521     11519     11522     11524     11521     11519     11522     11525
     11522     11525     11528     11529     11522     11525     11528     11530
     11522     11525     11528     11531     11523     11522     11525     11526
     11523     11522     11525     11527     11523     11522     11525     11528
     11524     11522     11525     11526     11524     11522     11525     11527
     11524     11522     11525     11528     11525     11528     11531     11532
     11525     11528     11531     11533     11525     11528     11531     11534
     11526     11525     11528     11529     11526     11525     11528     11530
     11526     11525     11528     11531     11527     11525     11528     11529
     11527     11525     11528     11530     11527     11525     11528     11531
     11528     11531     11534     11535     11528     11531     11534     11536
     11528     11531     11534     11537     11529     11528     11531     11532
     11529     11528     11531     11533     11529     11528     11531     11534
     11530     11528     11531     11532     11530     11528     11531     11533
     11530     11528     11531     11534     11531     11534     11537     11538
     11531     11534     11537     11539     11531     11534     11537     11540
     11532     11531     11534     11535     11532     11531     11534     11536
     11532     11531     11534     11537     11533     11531     11534     11535
     11533     11531     11534     11536     11533     11531     11534     11537
     11535     11534     11537     11538     11535     11534     11537     11539
     11535     11534     11537     11540     11536     11534     11537     11538
     11536     11534     11537     11539     11536     11534     11537     11540
     11541     11542     11557     11558     11541     11542     11557     11559
     11541     11542     11557     11563     11542     11541     11545     11546
     11542     11541     11545     11547     11542     11541     11545     11548
     11542     11541     11549     11550     11542     11541     11549     11551
     11542     11541     11549     11552     11542     11541     11553     11554
     11542     11541     11553     11555     11542     11541     11553     11556
     11542     11557     11563     11560     11543     11542     11541     11545
     11543     11542     11541     11549     11543     11542     11541     11553
     11543     11542     11557     11558     11543     11542     11557     11559
     11543     11542     11557     11563     11544     11542     11541     11545
     11544     11542     11541     11549     11544     11542     11541     11553
     11544     11542     11557     11558     11544     11542     11557     11559
     11544     11542     11557     11563     11545     11541     11542     11557
     11545     11541     11549     11550     11545     11541     11549     11551
     11545     11541     11549     11552     11545     11541     11553     11554
     11545     11541     11553     11555     11545     11541     11553     11556
     11546     11545     11541     11549     11546     11545     11541     11553
     11547     11545     11541     11549     11547     11545     11541     11553
     11548     11545     11541     11549     11548     11545     11541     11553
     11549     11541     11542     11557     11549     11541     11553     11554
     11549     11541     11553     11555     11549     11541     11553     11556
     11550     11549     11541     11553     11551     11549     11541     11553
     11552     11549     11541     11553     11553     11541     11542     11557
     11557     11563     11560     11561     11557     11563     11560     11562
     11557     11563     11560     11564     11558     11557     11563     11560
     11559     11557     11563     11560     11560     11564     11565     11566
     11560     11564     11565     11567     11560     11564     11565     11568
     11561     11560     11564     11565     11562     11560     11564     11565
     11563     11560     11564     11565     11564     11565     11568     11569
     11564     11565     11568     11570     11564     11565     11568     11576
     11565     11568     11570     11571     11565     11568     11576     11577
     11565     11568     11576     11578     11565     11568     11576     11579
     11566     11565     11568     11569     11566     11565     11568     11570
     11566     11565     11568     11576     11567     11565     11568     11569
     11567     11565     11568     11570     11567     11565     11568     11576
     11568     11570     11571     11572     11568     11570     11571     11573
     11568     11576     11579     11580     11569     11568     11570     11571
     11569     11568     11576     11577     11569     11568     11576     11578
     11569     11568     11576     11579     11570     11568     11576     11577
     11570     11568     11576     11578     11570     11568     11576     11579
     11570     11571     11573     11574     11570     11571     11573     11575
     11570     11571     11573     11585     11571     11570     11568     11576
     11571     11573     11585     11586     11571     11573     11585     11587
     11571     11573     11585     11588     11572     11571     11573     11574
     11572     11571     11573     11575     11572     11571     11573     11585
     11573     11585     11588     11589     11573     11585     11588     11590
     11573     11585     11588     11591     11574     11573     11585     11586
     11574     11573     11585     11587     11574     11573     11585     11588
     11575     11573     11585     11586     11575     11573     11585     11587
     11575     11573     11585     11588     11576     11579     11580     11581
     11576     11579     11580     11582     11577     11576     11579     11580
     11578     11576     11579     11580     11579     11580     11582     11583
     11579     11580     11582     11584     11579     11580     11582     11632
     11580     11582     11632     11633     11580     11582     11632     11634
     11580     11582     11632     11635     11581     11580     11582     11583
     11581     11580     11582     11584     11581     11580     11582     11632
     11582     11632     11635     11636     11582     11632     11635     11637
     11582     11632     11635     11638     11583     11582     11632     11633
     11583     11582     11632     11634     11583     11582     11632     11635
     11584     11582     11632     11633     11584     11582     11632     11634
     11584     11582     11632     11635     11585     11588     11591     11592
     11585     11588     11591     11593     11585     11588     11591     11594
     11586     11585     11588     11589     11586     11585     11588     11590
     11586     11585     11588     11591     11587     11585     11588     11589
     11587     11585     11588     11590     11587     11585     11588     11591
     11588     11591     11594     11595     11588     11591     11594     11596
     11588     11591     11594     11597     11589     11588     11591     11592
     11589     11588     11591     11593     11589     11588     11591     11594
     11590     11588     11591     11592     11590     11588     11591     11593
     11590     11588     11591     11594     11591     11594     11597     11598
     11591     11594     11597     11599     11591     11594     11597     11600
     11592     11591     11594     11595     11592     11591     11594     11596
     11592     11591     11594     11597     11593     11591     11594     11595
     11593     11591     11594     11596     11593     11591     11594     11597
     11594     11597     11600     11601     11594     11597     11600     11602
     11594     11597     11600     11603     11595     11594     11597     11598
     11595     11594     11597     11599     11595     11594     11597     11600
     11596     11594     11597     11598     11596     11594     11597     11599
     11596     11594     11597     11600     11597     11600     11603     11604
     11597     11600     11603     11605     11598     11597     11600     11601
     11598     11597     11600     11602     11598     11597     11600     11603
     11599     11597     11600     11601     11599     11597     11600     11602
     11599     11597     11600     11603     11600     11603     11605     11606
     11600     11603     11605     11607     11601     11600     11603     11604
     11601     11600     11603     11605     11602     11600     11603     11604
     11602     11600     11603     11605     11603     11605     11607     11608
     11603     11605     11607     11609     11603     11605     11607     11610
     11604     11603     11605     11606     11604     11603     11605     11607
     11605     11607     11610     11611     11605     11607     11610     11612
     11605     11607     11610     11613     11606     11605     11607     11608
     11606     11605     11607     11609     11606     11605     11607     11610
     11607     11610     11613     11614     11607     11610     11613     11615
     11607     11610     11613     11616     11608     11607     11610     11611
     11608     11607     11610     11612     11608     11607     11610     11613
     11609     11607     11610     11611     11609     11607     11610     11612
     11609     11607     11610     11613     11610     11613     11616     11617
     11610     11613     11616     11618     11610     11613     11616     11619
     11611     11610     11613     11614     11611     11610     11613     11615
     11611     11610     11613     11616     11612     11610     11613     11614
     11612     11610     11613     11615     11612     11610     11613     11616
     11613     11616     11619     11620     11613     11616     11619     11621
     11613     11616     11619     11622     11614     11613     11616     11617
     11614     11613     11616     11618     11614     11613     11616     11619
     11615     11613     11616     11617     11615     11613     11616     11618
     11615     11613     11616     11619     11616     11619     11622     11623
     11616     11619     11622     11624     11616     11619     11622     11625
     11617     11616     11619     11620     11617     11616     11619     11621
     11617     11616     11619     11622     11618     11616     11619     11620
     11618     11616     11619     11621     11618     11616     11619     11622
     11619     11622     11625     11626     11619     11622     11625     11627
     11619     11622     11625     11628     11620     11619     11622     11623
     11620     11619     11622     11624     11620     11619     11622     11625
     11621     11619     11622     11623     11621     11619     11622     11624
     11621     11619     11622     11625     11622     11625     11628     11629
     11622     11625     11628     11630     11622     11625     11628     11631
     11623     11622     11625     11626     11623     11622     11625     11627
     11623     11622     11625     11628     11624     11622     11625     11626
     11624     11622     11625     11627     11624     11622     11625     11628
     11626     11625     11628     11629     11626     11625     11628     11630
     11626     11625     11628     11631     11627     11625     11628     11629
     11627     11625     11628     11630     11627     11625     11628     11631
     11632     11635     11638     11639     11632     11635     11638     11640
     11632     11635     11638     11641     11633     11632     11635     11636
     11633     11632     11635     11637     11633     11632     11635     11638
     11634     11632     11635     11636     11634     11632     11635     11637
     11634     11632     11635     11638     11635     11638     11641     11642
     11635     11638     11641     11643     11635     11638     11641     11644
     11636     11635     11638     11639     11636     11635     11638     11640
     11636     11635     11638     11641     11637     11635     11638     11639
     11637     11635     11638     11640     11637     11635     11638     11641
     11638     11641     11644     11645     11638     11641     11644     11646
     11638     11641     11644     11647     11639     11638     11641     11642
     11639     11638     11641     11643     11639     11638     11641     11644
     11640     11638     11641     11642     11640     11638     11641     11643
     11640     11638     11641     11644     11641     11644     11647     11648
     11641     11644     11647     11649     11641     11644     11647     11650
     11642     11641     11644     11645     11642     11641     11644     11646
     11642     11641     11644     11647     11643     11641     11644     11645
     11643     11641     11644     11646     11643     11641     11644     11647
     11644     11647     11650     11651     11644     11647     11650     11652
     11645     11644     11647     11648     11645     11644     11647     11649
     11645     11644     11647     11650     11646     11644     11647     11648
     11646     11644     11647     11649     11646     11644     11647     11650
     11647     11650     11652     11653     11647     11650     11652     11654
     11648     11647     11650     11651     11648     11647     11650     11652
     11649     11647     11650     11651     11649     11647     11650     11652
     11650     11652     11654     11655     11650     11652     11654     11656
     11650     11652     11654     11657     11651     11650     11652     11653
     11651     11650     11652     11654     11652     11654     11657     11658
     11652     11654     11657     11659     11652     11654     11657     11660
     11653     11652     11654     11655     11653     11652     11654     11656
     11653     11652     11654     11657     11654     11657     11660     11661
     11654     11657     11660     11662     11654     11657     11660     11663
     11655     11654     11657     11658     11655     11654     11657     11659
     11655     11654     11657     11660     11656     11654     11657     11658
     11656     11654     11657     11659     11656     11654     11657     11660
     11657     11660     11663     11664     11657     11660     11663     11665
     11657     11660     11663     11666     11658     11657     11660     11661
     11658     11657     11660     11662     11658     11657     11660     11663
     11659     11657     11660     11661     11659     11657     11660     11662
     11659     11657     11660     11663     11660     11663     11666     11667
     11660     11663     11666     11668     11660     11663     11666     11669
     11661     11660     11663     11664     11661     11660     11663     11665
     11661     11660     11663     11666     11662     11660     11663     11664
     11662     11660     11663     11665     11662     11660     11663     11666
     11663     11666     11669     11670     11663     11666     11669     11671
     11663     11666     11669     11672     11664     11663     11666     11667
     11664     11663     11666     11668     11664     11663     11666     11669
     11665     11663     11666     11667     11665     11663     11666     11668
     11665     11663     11666     11669     11666     11669     11672     11673
     11666     11669     11672     11674     11666     11669     11672     11675
     11667     11666     11669     11670     11667     11666     11669     11671
     11667     11666     11669     11672     11668     11666     11669     11670
     11668     11666     11669     11671     11668     11666     11669     11672
     11669     11672     11675     11676     11669     11672     11675     11677
     11669     11672     11675     11678     11670     11669     11672     11673
     11670     11669     11672     11674     11670     11669     11672     11675
     11671     11669     11672     11673     11671     11669     11672     11674
     11671     11669     11672     11675     11673     11672     11675     11676
     11673     11672     11675     11677     11673     11672     11675     11678
     11674     11672     11675     11676     11674     11672     11675     11677
     11674     11672     11675     11678     11679     11680     11695     11696
     11679     11680     11695     11697     11679     11680     11695     11701
     11680     11679     11683     11684     11680     11679     11683     11685
     11680     11679     11683     11686     11680     11679     11687     11688
     11680     11679     11687     11689     11680     11679     11687     11690
     11680     11679     11691     11692     11680     11679     11691     11693
     11680     11679     11691     11694     11680     11695     11701     11698
     11681     11680     11679     11683     11681     11680     11679     11687
     11681     11680     11679     11691     11681     11680     11695     11696
     11681     11680     11695     11697     11681     11680     11695     11701
     11682     11680     11679     11683     11682     11680     11679     11687
     11682     11680     11679     11691     11682     11680     11695     11696
     11682     11680     11695     11697     11682     11680     11695     11701
     11683     11679     11680     11695     11683     11679     11687     11688
     11683     11679     11687     11689     11683     11679     11687     11690
     11683     11679     11691     11692     11683     11679     11691     11693
     11683     11679     11691     11694     11684     11683     11679     11687
     11684     11683     11679     11691     11685     11683     11679     11687
     11685     11683     11679     11691     11686     11683     11679     11687
     11686     11683     11679     11691     11687     11679     11680     11695
     11687     11679     11691     11692     11687     11679     11691     11693
     11687     11679     11691     11694     11688     11687     11679     11691
     11689     11687     11679     11691     11690     11687     11679     11691
     11691     11679     11680     11695     11695     11701     11698     11699
     11695     11701     11698     11700     11695     11701     11698     11702
     11696     11695     11701     11698     11697     11695     11701     11698
     11698     11702     11703     11704     11698     11702     11703     11705
     11698     11702     11703     11706     11699     11698     11702     11703
     11700     11698     11702     11703     11701     11698     11702     11703
     11702     11703     11706     11707     11702     11703     11706     11708
     11702     11703     11706     11714     11703     11706     11708     11709
     11703     11706     11714     11715     11703     11706     11714     11716
     11703     11706     11714     11717     11704     11703     11706     11707
     11704     11703     11706     11708     11704     11703     11706     11714
     11705     11703     11706     11707     11705     11703     11706     11708
     11705     11703     11706     11714     11706     11708     11709     11710
     11706     11708     11709     11711     11706     11714     11717     11718
     11707     11706     11708     11709     11707     11706     11714     11715
     11707     11706     11714     11716     11707     11706     11714     11717
     11708     11706     11714     11715     11708     11706     11714     11716
     11708     11706     11714     11717     11708     11709     11711     11712
     11708     11709     11711     11713     11708     11709     11711     11723
     11709     11708     11706     11714     11709     11711     11723     11724
     11709     11711     11723     11725     11709     11711     11723     11726
     11710     11709     11711     11712     11710     11709     11711     11713
     11710     11709     11711     11723     11711     11723     11726     11727
     11711     11723     11726     11728     11711     11723     11726     11729
     11712     11711     11723     11724     11712     11711     11723     11725
     11712     11711     11723     11726     11713     11711     11723     11724
     11713     11711     11723     11725     11713     11711     11723     11726
     11714     11717     11718     11719     11714     11717     11718     11720
     11715     11714     11717     11718     11716     11714     11717     11718
     11717     11718     11720     11721     11717     11718     11720     11722
     11717     11718     11720     11770     11718     11720     11770     11771
     11718     11720     11770     11772     11718     11720     11770     11773
     11719     11718     11720     11721     11719     11718     11720     11722
     11719     11718     11720     11770     11720     11770     11773     11774
     11720     11770     11773     11775     11720     11770     11773     11776
     11721     11720     11770     11771     11721     11720     11770     11772
     11721     11720     11770     11773     11722     11720     11770     11771
     11722     11720     11770     11772     11722     11720     11770     11773
     11723     11726     11729     11730     11723     11726     11729     11731
     11723     11726     11729     11732     11724     11723     11726     11727
     11724     11723     11726     11728     11724     11723     11726     11729
     11725     11723     11726     11727     11725     11723     11726     11728
     11725     11723     11726     11729     11726     11729     11732     11733
     11726     11729     11732     11734     11726     11729     11732     11735
     11727     11726     11729     11730     11727     11726     11729     11731
     11727     11726     11729     11732     11728     11726     11729     11730
     11728     11726     11729     11731     11728     11726     11729     11732
     11729     11732     11735     11736     11729     11732     11735     11737
     11729     11732     11735     11738     11730     11729     11732     11733
     11730     11729     11732     11734     11730     11729     11732     11735
     11731     11729     11732     11733     11731     11729     11732     11734
     11731     11729     11732     11735     11732     11735     11738     11739
     11732     11735     11738     11740     11732     11735     11738     11741
     11733     11732     11735     11736     11733     11732     11735     11737
     11733     11732     11735     11738     11734     11732     11735     11736
     11734     11732     11735     11737     11734     11732     11735     11738
     11735     11738     11741     11742     11735     11738     11741     11743
     11736     11735     11738     11739     11736     11735     11738     11740
     11736     11735     11738     11741     11737     11735     11738     11739
     11737     11735     11738     11740     11737     11735     11738     11741
     11738     11741     11743     11744     11738     11741     11743     11745
     11739     11738     11741     11742     11739     11738     11741     11743
     11740     11738     11741     11742     11740     11738     11741     11743
     11741     11743     11745     11746     11741     11743     11745     11747
     11741     11743     11745     11748     11742     11741     11743     11744
     11742     11741     11743     11745     11743     11745     11748     11749
     11743     11745     11748     11750     11743     11745     11748     11751
     11744     11743     11745     11746     11744     11743     11745     11747
     11744     11743     11745     11748     11745     11748     11751     11752
     11745     11748     11751     11753     11745     11748     11751     11754
     11746     11745     11748     11749     11746     11745     11748     11750
     11746     11745     11748     11751     11747     11745     11748     11749
     11747     11745     11748     11750     11747     11745     11748     11751
     11748     11751     11754     11755     11748     11751     11754     11756
     11748     11751     11754     11757     11749     11748     11751     11752
     11749     11748     11751     11753     11749     11748     11751     11754
     11750     11748     11751     11752     11750     11748     11751     11753
     11750     11748     11751     11754     11751     11754     11757     11758
     11751     11754     11757     11759     11751     11754     11757     11760
     11752     11751     11754     11755     11752     11751     11754     11756
     11752     11751     11754     11757     11753     11751     11754     11755
     11753     11751     11754     11756     11753     11751     11754     11757
     11754     11757     11760     11761     11754     11757     11760     11762
     11754     11757     11760     11763     11755     11754     11757     11758
     11755     11754     11757     11759     11755     11754     11757     11760
     11756     11754     11757     11758     11756     11754     11757     11759
     11756     11754     11757     11760     11757     11760     11763     11764
     11757     11760     11763     11765     11757     11760     11763     11766
     11758     11757     11760     11761     11758     11757     11760     11762
     11758     11757     11760     11763     11759     11757     11760     11761
     11759     11757     11760     11762     11759     11757     11760     11763
     11760     11763     11766     11767     11760     11763     11766     11768
     11760     11763     11766     11769     11761     11760     11763     11764
     11761     11760     11763     11765     11761     11760     11763     11766
     11762     11760     11763     11764     11762     11760     11763     11765
     11762     11760     11763     11766     11764     11763     11766     11767
     11764     11763     11766     11768     11764     11763     11766     11769
     11765     11763     11766     11767     11765     11763     11766     11768
     11765     11763     11766     11769     11770     11773     11776     11777
     11770     11773     11776     11778     11770     11773     11776     11779
     11771     11770     11773     11774     11771     11770     11773     11775
     11771     11770     11773     11776     11772     11770     11773     11774
     11772     11770     11773     11775     11772     11770     11773     11776
     11773     11776     11779     11780     11773     11776     11779     11781
     11773     11776     11779     11782     11774     11773     11776     11777
     11774     11773     11776     11778     11774     11773     11776     11779
     11775     11773     11776     11777     11775     11773     11776     11778
     11775     11773     11776     11779     11776     11779     11782     11783
     11776     11779     11782     11784     11776     11779     11782     11785
     11777     11776     11779     11780     11777     11776     11779     11781
     11777     11776     11779     11782     11778     11776     11779     11780
     11778     11776     11779     11781     11778     11776     11779     11782
     11779     11782     11785     11786     11779     11782     11785     11787
     11779     11782     11785     11788     11780     11779     11782     11783
     11780     11779     11782     11784     11780     11779     11782     11785
     11781     11779     11782     11783     11781     11779     11782     11784
     11781     11779     11782     11785     11782     11785     11788     11789
     11782     11785     11788     11790     11783     11782     11785     11786
     11783     11782     11785     11787     11783     11782     11785     11788
     11784     11782     11785     11786     11784     11782     11785     11787
     11784     11782     11785     11788     11785     11788     11790     11791
     11785     11788     11790     11792     11786     11785     11788     11789
     11786     11785     11788     11790     11787     11785     11788     11789
     11787     11785     11788     11790     11788     11790     11792     11793
     11788     11790     11792     11794     11788     11790     11792     11795
     11789     11788     11790     11791     11789     11788     11790     11792
     11790     11792     11795     11796     11790     11792     11795     11797
     11790     11792     11795     11798     11791     11790     11792     11793
     11791     11790     11792     11794     11791     11790     11792     11795
     11792     11795     11798     11799     11792     11795     11798     11800
     11792     11795     11798     11801     11793     11792     11795     11796
     11793     11792     11795     11797     11793     11792     11795     11798
     11794     11792     11795     11796     11794     11792     11795     11797
     11794     11792     11795     11798     11795     11798     11801     11802
     11795     11798     11801     11803     11795     11798     11801     11804
     11796     11795     11798     11799     11796     11795     11798     11800
     11796     11795     11798     11801     11797     11795     11798     11799
     11797     11795     11798     11800     11797     11795     11798     11801
     11798     11801     11804     11805     11798     11801     11804     11806
     11798     11801     11804     11807     11799     11798     11801     11802
     11799     11798     11801     11803     11799     11798     11801     11804
     11800     11798     11801     11802     11800     11798     11801     11803
     11800     11798     11801     11804     11801     11804     11807     11808
     11801     11804     11807     11809     11801     11804     11807     11810
     11802     11801     11804     11805     11802     11801     11804     11806
     11802     11801     11804     11807     11803     11801     11804     11805
     11803     11801     11804     11806     11803     11801     11804     11807
     11804     11807     11810     11811     11804     11807     11810     11812
     11804     11807     11810     11813     11805     11804     11807     11808
     11805     11804     11807     11809     11805     11804     11807     11810
     11806     11804     11807     11808     11806     11804     11807     11809
     11806     11804     11807     11810     11807     11810     11813     11814
     11807     11810     11813     11815     11807     11810     11813     11816
     11808     11807     11810     11811     11808     11807     11810     11812
     11808     11807     11810     11813     11809     11807     11810     11811
     11809     11807     11810     11812     11809     11807     11810     11813
     11811     11810     11813     11814     11811     11810     11813     11815
     11811     11810     11813     11816     11812     11810     11813     11814
     11812     11810     11813     11815     11812     11810     11813     11816
     11817     11818     11833     11834     11817     11818     11833     11835
     11817     11818     11833     11839     11818     11817     11821     11822
     11818     11817     11821     11823     11818     11817     11821     11824
     11818     11817     11825     11826     11818     11817     11825     11827
     11818     11817     11825     11828     11818     11817     11829     11830
     11818     11817     11829     11831     11818     11817     11829     11832
     11818     11833     11839     11836     11819     11818     11817     11821
     11819     11818     11817     11825     11819     11818     11817     11829
     11819     11818     11833     11834     11819     11818     11833     11835
     11819     11818     11833     11839     11820     11818     11817     11821
     11820     11818     11817     11825     11820     11818     11817     11829
     11820     11818     11833     11834     11820     11818     11833     11835
     11820     11818     11833     11839     11821     11817     11818     11833
     11821     11817     11825     11826     11821     11817     11825     11827
     11821     11817     11825     11828     11821     11817     11829     11830
     11821     11817     11829     11831     11821     11817     11829     11832
     11822     11821     11817     11825     11822     11821     11817     11829
     11823     11821     11817     11825     11823     11821     11817     11829
     11824     11821     11817     11825     11824     11821     11817     11829
     11825     11817     11818     11833     11825     11817     11829     11830
     11825     11817     11829     11831     11825     11817     11829     11832
     11826     11825     11817     11829     11827     11825     11817     11829
     11828     11825     11817     11829     11829     11817     11818     11833
     11833     11839     11836     11837     11833     11839     11836     11838
     11833     11839     11836     11840     11834     11833     11839     11836
     11835     11833     11839     11836     11836     11840     11841     11842
     11836     11840     11841     11843     11836     11840     11841     11844
     11837     11836     11840     11841     11838     11836     11840     11841
     11839     11836     11840     11841     11840     11841     11844     11845
     11840     11841     11844     11846     11840     11841     11844     11852
     11841     11844     11846     11847     11841     11844     11852     11853
     11841     11844     11852     11854     11841     11844     11852     11855
     11842     11841     11844     11845     11842     11841     11844     11846
     11842     11841     11844     11852     11843     11841     11844     11845
     11843     11841     11844     11846     11843     11841     11844     11852
     11844     11846     11847     11848     11844     11846     11847     11849
     11844     11852     11855     11856     11845     11844     11846     11847
     11845     11844     11852     11853     11845     11844     11852     11854
     11845     11844     11852     11855     11846     11844     11852     11853
     11846     11844     11852     11854     11846     11844     11852     11855
     11846     11847     11849     11850     11846     11847     11849     11851
     11846     11847     11849     11861     11847     11846     11844     11852
     11847     11849     11861     11862     11847     11849     11861     11863
     11847     11849     11861     11864     11848     11847     11849     11850
     11848     11847     11849     11851     11848     11847     11849     11861
     11849     11861     11864     11865     11849     11861     11864     11866
     11849     11861     11864     11867     11850     11849     11861     11862
     11850     11849     11861     11863     11850     11849     11861     11864
     11851     11849     11861     11862     11851     11849     11861     11863
     11851     11849     11861     11864     11852     11855     11856     11857
     11852     11855     11856     11858     11853     11852     11855     11856
     11854     11852     11855     11856     11855     11856     11858     11859
     11855     11856     11858     11860     11855     11856     11858     11908
     11856     11858     11908     11909     11856     11858     11908     11910
     11856     11858     11908     11911     11857     11856     11858     11859
     11857     11856     11858     11860     11857     11856     11858     11908
     11858     11908     11911     11912     11858     11908     11911     11913
     11858     11908     11911     11914     11859     11858     11908     11909
     11859     11858     11908     11910     11859     11858     11908     11911
     11860     11858     11908     11909     11860     11858     11908     11910
     11860     11858     11908     11911     11861     11864     11867     11868
     11861     11864     11867     11869     11861     11864     11867     11870
     11862     11861     11864     11865     11862     11861     11864     11866
     11862     11861     11864     11867     11863     11861     11864     11865
     11863     11861     11864     11866     11863     11861     11864     11867
     11864     11867     11870     11871     11864     11867     11870     11872
     11864     11867     11870     11873     11865     11864     11867     11868
     11865     11864     11867     11869     11865     11864     11867     11870
     11866     11864     11867     11868     11866     11864     11867     11869
     11866     11864     11867     11870     11867     11870     11873     11874
     11867     11870     11873     11875     11867     11870     11873     11876
     11868     11867     11870     11871     11868     11867     11870     11872
     11868     11867     11870     11873     11869     11867     11870     11871
     11869     11867     11870     11872     11869     11867     11870     11873
     11870     11873     11876     11877     11870     11873     11876     11878
     11870     11873     11876     11879     11871     11870     11873     11874
     11871     11870     11873     11875     11871     11870     11873     11876
     11872     11870     11873     11874     11872     11870     11873     11875
     11872     11870     11873     11876     11873     11876     11879     11880
     11873     11876     11879     11881     11874     11873     11876     11877
     11874     11873     11876     11878     11874     11873     11876     11879
     11875     11873     11876     11877     11875     11873     11876     11878
     11875     11873     11876     11879     11876     11879     11881     11882
     11876     11879     11881     11883     11877     11876     11879     11880
     11877     11876     11879     11881     11878     11876     11879     11880
     11878     11876     11879     11881     11879     11881     11883     11884
     11879     11881     11883     11885     11879     11881     11883     11886
     11880     11879     11881     11882     11880     11879     11881     11883
     11881     11883     11886     11887     11881     11883     11886     11888
     11881     11883     11886     11889     11882     11881     11883     11884
     11882     11881     11883     11885     11882     11881     11883     11886
     11883     11886     11889     11890     11883     11886     11889     11891
     11883     11886     11889     11892     11884     11883     11886     11887
     11884     11883     11886     11888     11884     11883     11886     11889
     11885     11883     11886     11887     11885     11883     11886     11888
     11885     11883     11886     11889     11886     11889     11892     11893
     11886     11889     11892     11894     11886     11889     11892     11895
     11887     11886     11889     11890     11887     11886     11889     11891
     11887     11886     11889     11892     11888     11886     11889     11890
     11888     11886     11889     11891     11888     11886     11889     11892
     11889     11892     11895     11896     11889     11892     11895     11897
     11889     11892     11895     11898     11890     11889     11892     11893
     11890     11889     11892     11894     11890     11889     11892     11895
     11891     11889     11892     11893     11891     11889     11892     11894
     11891     11889     11892     11895     11892     11895     11898     11899
     11892     11895     11898     11900     11892     11895     11898     11901
     11893     11892     11895     11896     11893     11892     11895     11897
     11893     11892     11895     11898     11894     11892     11895     11896
     11894     11892     11895     11897     11894     11892     11895     11898
     11895     11898     11901     11902     11895     11898     11901     11903
     11895     11898     11901     11904     11896     11895     11898     11899
     11896     11895     11898     11900     11896     11895     11898     11901
     11897     11895     11898     11899     11897     11895     11898     11900
     11897     11895     11898     11901     11898     11901     11904     11905
     11898     11901     11904     11906     11898     11901     11904     11907
     11899     11898     11901     11902     11899     11898     11901     11903
     11899     11898     11901     11904     11900     11898     11901     11902
     11900     11898     11901     11903     11900     11898     11901     11904
     11902     11901     11904     11905     11902     11901     11904     11906
     11902     11901     11904     11907     11903     11901     11904     11905
     11903     11901     11904     11906     11903     11901     11904     11907
     11908     11911     11914     11915     11908     11911     11914     11916
     11908     11911     11914     11917     11909     11908     11911     11912
     11909     11908     11911     11913     11909     11908     11911     11914
     11910     11908     11911     11912     11910     11908     11911     11913
     11910     11908     11911     11914     11911     11914     11917     11918
     11911     11914     11917     11919     11911     11914     11917     11920
     11912     11911     11914     11915     11912     11911     11914     11916
     11912     11911     11914     11917     11913     11911     11914     11915
     11913     11911     11914     11916     11913     11911     11914     11917
     11914     11917     11920     11921     11914     11917     11920     11922
     11914     11917     11920     11923     11915     11914     11917     11918
     11915     11914     11917     11919     11915     11914     11917     11920
     11916     11914     11917     11918     11916     11914     11917     11919
     11916     11914     11917     11920     11917     11920     11923     11924
     11917     11920     11923     11925     11917     11920     11923     11926
     11918     11917     11920     11921     11918     11917     11920     11922
     11918     11917     11920     11923     11919     11917     11920     11921
     11919     11917     11920     11922     11919     11917     11920     11923
     11920     11923     11926     11927     11920     11923     11926     11928
     11921     11920     11923     11924     11921     11920     11923     11925
     11921     11920     11923     11926     11922     11920     11923     11924
     11922     11920     11923     11925     11922     11920     11923     11926
     11923     11926     11928     11929     11923     11926     11928     11930
     11924     11923     11926     11927     11924     11923     11926     11928
     11925     11923     11926     11927     11925     11923     11926     11928
     11926     11928     11930     11931     11926     11928     11930     11932
     11926     11928     11930     11933     11927     11926     11928     11929
     11927     11926     11928     11930     11928     11930     11933     11934
     11928     11930     11933     11935     11928     11930     11933     11936
     11929     11928     11930     11931     11929     11928     11930     11932
     11929     11928     11930     11933     11930     11933     11936     11937
     11930     11933     11936     11938     11930     11933     11936     11939
     11931     11930     11933     11934     11931     11930     11933     11935
     11931     11930     11933     11936     11932     11930     11933     11934
     11932     11930     11933     11935     11932     11930     11933     11936
     11933     11936     11939     11940     11933     11936     11939     11941
     11933     11936     11939     11942     11934     11933     11936     11937
     11934     11933     11936     11938     11934     11933     11936     11939
     11935     11933     11936     11937     11935     11933     11936     11938
     11935     11933     11936     11939     11936     11939     11942     11943
     11936     11939     11942     11944     11936     11939     11942     11945
     11937     11936     11939     11940     11937     11936     11939     11941
     11937     11936     11939     11942     11938     11936     11939     11940
     11938     11936     11939     11941     11938     11936     11939     11942
     11939     11942     11945     11946     11939     11942     11945     11947
     11939     11942     11945     11948     11940     11939     11942     11943
     11940     11939     11942     11944     11940     11939     11942     11945
     11941     11939     11942     11943     11941     11939     11942     11944
     11941     11939     11942     11945     11942     11945     11948     11949
     11942     11945     11948     11950     11942     11945     11948     11951
     11943     11942     11945     11946     11943     11942     11945     11947
     11943     11942     11945     11948     11944     11942     11945     11946
     11944     11942     11945     11947     11944     11942     11945     11948
     11945     11948     11951     11952     11945     11948     11951     11953
     11945     11948     11951     11954     11946     11945     11948     11949
     11946     11945     11948     11950     11946     11945     11948     11951
     11947     11945     11948     11949     11947     11945     11948     11950
     11947     11945     11948     11951     11949     11948     11951     11952
     11949     11948     11951     11953     11949     11948     11951     11954
     11950     11948     11951     11952     11950     11948     11951     11953
     11950     11948     11951     11954     11955     11956     11971     11972
     11955     11956     11971     11973     11955     11956     11971     11977
     11956     11955     11959     11960     11956     11955     11959     11961
     11956     11955     11959     11962     11956     11955     11963     11964
     11956     11955     11963     11965     11956     11955     11963     11966
     11956     11955     11967     11968     11956     11955     11967     11969
     11956     11955     11967     11970     11956     11971     11977     11974
     11957     11956     11955     11959     11957     11956     11955     11963
     11957     11956     11955     11967     11957     11956     11971     11972
     11957     11956     11971     11973     11957     11956     11971     11977
     11958     11956     11955     11959     11958     11956     11955     11963
     11958     11956     11955     11967     11958     11956     11971     11972
     11958     11956     11971     11973     11958     11956     11971     11977
     11959     11955     11956     11971     11959     11955     11963     11964
     11959     11955     11963     11965     11959     11955     11963     11966
     11959     11955     11967     11968     11959     11955     11967     11969
     11959     11955     11967     11970     11960     11959     11955     11963
     11960     11959     11955     11967     11961     11959     11955     11963
     11961     11959     11955     11967     11962     11959     11955     11963
     11962     11959     11955     11967     11963     11955     11956     11971
     11963     11955     11967     11968     11963     11955     11967     11969
     11963     11955     11967     11970     11964     11963     11955     11967
     11965     11963     11955     11967     11966     11963     11955     11967
     11967     11955     11956     11971     11971     11977     11974     11975
     11971     11977     11974     11976     11971     11977     11974     11978
     11972     11971     11977     11974     11973     11971     11977     11974
     11974     11978     11979     11980     11974     11978     11979     11981
     11974     11978     11979     11982     11975     11974     11978     11979
     11976     11974     11978     11979     11977     11974     11978     11979
     11978     11979     11982     11983     11978     11979     11982     11984
     11978     11979     11982     11990     11979     11982     11984     11985
     11979     11982     11990     11991     11979     11982     11990     11992
     11979     11982     11990     11993     11980     11979     11982     11983
     11980     11979     11982     11984     11980     11979     11982     11990
     11981     11979     11982     11983     11981     11979     11982     11984
     11981     11979     11982     11990     11982     11984     11985     11986
     11982     11984     11985     11987     11982     11990     11993     11994
     11983     11982     11984     11985     11983     11982     11990     11991
     11983     11982     11990     11992     11983     11982     11990     11993
     11984     11982     11990     11991     11984     11982     11990     11992
     11984     11982     11990     11993     11984     11985     11987     11988
     11984     11985     11987     11989     11984     11985     11987     11999
     11985     11984     11982     11990     11985     11987     11999     12000
     11985     11987     11999     12001     11985     11987     11999     12002
     11986     11985     11987     11988     11986     11985     11987     11989
     11986     11985     11987     11999     11987     11999     12002     12003
     11987     11999     12002     12004     11987     11999     12002     12005
     11988     11987     11999     12000     11988     11987     11999     12001
     11988     11987     11999     12002     11989     11987     11999     12000
     11989     11987     11999     12001     11989     11987     11999     12002
     11990     11993     11994     11995     11990     11993     11994     11996
     11991     11990     11993     11994     11992     11990     11993     11994
     11993     11994     11996     11997     11993     11994     11996     11998
     11993     11994     11996     12046     11994     11996     12046     12047
     11994     11996     12046     12048     11994     11996     12046     12049
     11995     11994     11996     11997     11995     11994     11996     11998
     11995     11994     11996     12046     11996     12046     12049     12050
     11996     12046     12049     12051     11996     12046     12049     12052
     11997     11996     12046     12047     11997     11996     12046     12048
     11997     11996     12046     12049     11998     11996     12046     12047
     11998     11996     12046     12048     11998     11996     12046     12049
     11999     12002     12005     12006     11999     12002     12005     12007
     11999     12002     12005     12008     12000     11999     12002     12003
     12000     11999     12002     12004     12000     11999     12002     12005
     12001     11999     12002     12003     12001     11999     12002     12004
     12001     11999     12002     12005     12002     12005     12008     12009
     12002     12005     12008     12010     12002     12005     12008     12011
     12003     12002     12005     12006     12003     12002     12005     12007
     12003     12002     12005     12008     12004     12002     12005     12006
     12004     12002     12005     12007     12004     12002     12005     12008
     12005     12008     12011     12012     12005     12008     12011     12013
     12005     12008     12011     12014     12006     12005     12008     12009
     12006     12005     12008     12010     12006     12005     12008     12011
     12007     12005     12008     12009     12007     12005     12008     12010
     12007     12005     12008     12011     12008     12011     12014     12015
     12008     12011     12014     12016     12008     12011     12014     12017
     12009     12008     12011     12012     12009     12008     12011     12013
     12009     12008     12011     12014     12010     12008     12011     12012
     12010     12008     12011     12013     12010     12008     12011     12014
     12011     12014     12017     12018     12011     12014     12017     12019
     12012     12011     12014     12015     12012     12011     12014     12016
     12012     12011     12014     12017     12013     12011     12014     12015
     12013     12011     12014     12016     12013     12011     12014     12017
     12014     12017     12019     12020     12014     12017     12019     12021
     12015     12014     12017     12018     12015     12014     12017     12019
     12016     12014     12017     12018     12016     12014     12017     12019
     12017     12019     12021     12022     12017     12019     12021     12023
     12017     12019     12021     12024     12018     12017     12019     12020
     12018     12017     12019     12021     12019     12021     12024     12025
     12019     12021     12024     12026     12019     12021     12024     12027
     12020     12019     12021     12022     12020     12019     12021     12023
     12020     12019     12021     12024     12021     12024     12027     12028
     12021     12024     12027     12029     12021     12024     12027     12030
     12022     12021     12024     12025     12022     12021     12024     12026
     12022     12021     12024     12027     12023     12021     12024     12025
     12023     12021     12024     12026     12023     12021     12024     12027
     12024     12027     12030     12031     12024     12027     12030     12032
     12024     12027     12030     12033     12025     12024     12027     12028
     12025     12024     12027     12029     12025     12024     12027     12030
     12026     12024     12027     12028     12026     12024     12027     12029
     12026     12024     12027     12030     12027     12030     12033     12034
     12027     12030     12033     12035     12027     12030     12033     12036
     12028     12027     12030     12031     12028     12027     12030     12032
     12028     12027     12030     12033     12029     12027     12030     12031
     12029     12027     12030     12032     12029     12027     12030     12033
     12030     12033     12036     12037     12030     12033     12036     12038
     12030     12033     12036     12039     12031     12030     12033     12034
     12031     12030     12033     12035     12031     12030     12033     12036
     12032     12030     12033     12034     12032     12030     12033     12035
     12032     12030     12033     12036     12033     12036     12039     12040
     12033     12036     12039     12041     12033     12036     12039     12042
     12034     12033     12036     12037     12034     12033     12036     12038
     12034     12033     12036     12039     12035     12033     12036     12037
     12035     12033     12036     12038     12035     12033     12036     12039
     12036     12039     12042     12043     12036     12039     12042     12044
     12036     12039     12042     12045     12037     12036     12039     12040
     12037     12036     12039     12041     12037     12036     12039     12042
     12038     12036     12039     12040     12038     12036     12039     12041
     12038     12036     12039     12042     12040     12039     12042     12043
     12040     12039     12042     12044     12040     12039     12042     12045
     12041     12039     12042     12043     12041     12039     12042     12044
     12041     12039     12042     12045     12046     12049     12052     12053
     12046     12049     12052     12054     12046     12049     12052     12055
     12047     12046     12049     12050     12047     12046     12049     12051
     12047     12046     12049     12052     12048     12046     12049     12050
     12048     12046     12049     12051     12048     12046     12049     12052
     12049     12052     12055     12056     12049     12052     12055     12057
     12049     12052     12055     12058     12050     12049     12052     12053
     12050     12049     12052     12054     12050     12049     12052     12055
     12051     12049     12052     12053     12051     12049     12052     12054
     12051     12049     12052     12055     12052     12055     12058     12059
     12052     12055     12058     12060     12052     12055     12058     12061
     12053     12052     12055     12056     12053     12052     12055     12057
     12053     12052     12055     12058     12054     12052     12055     12056
     12054     12052     12055     12057     12054     12052     12055     12058
     12055     12058     12061     12062     12055     12058     12061     12063
     12055     12058     12061     12064     12056     12055     12058     12059
     12056     12055     12058     12060     12056     12055     12058     12061
     12057     12055     12058     12059     12057     12055     12058     12060
     12057     12055     12058     12061     12058     12061     12064     12065
     12058     12061     12064     12066     12059     12058     12061     12062
     12059     12058     12061     12063     12059     12058     12061     12064
     12060     12058     12061     12062     12060     12058     12061     12063
     12060     12058     12061     12064     12061     12064     12066     12067
     12061     12064     12066     12068     12062     12061     12064     12065
     12062     12061     12064     12066     12063     12061     12064     12065
     12063     12061     12064     12066     12064     12066     12068     12069
     12064     12066     12068     12070     12064     12066     12068     12071
     12065     12064     12066     12067     12065     12064     12066     12068
     12066     12068     12071     12072     12066     12068     12071     12073
     12066     12068     12071     12074     12067     12066     12068     12069
     12067     12066     12068     12070     12067     12066     12068     12071
     12068     12071     12074     12075     12068     12071     12074     12076
     12068     12071     12074     12077     12069     12068     12071     12072
     12069     12068     12071     12073     12069     12068     12071     12074
     12070     12068     12071     12072     12070     12068     12071     12073
     12070     12068     12071     12074     12071     12074     12077     12078
     12071     12074     12077     12079     12071     12074     12077     12080
     12072     12071     12074     12075     12072     12071     12074     12076
     12072     12071     12074     12077     12073     12071     12074     12075
     12073     12071     12074     12076     12073     12071     12074     12077
     12074     12077     12080     12081     12074     12077     12080     12082
     12074     12077     12080     12083     12075     12074     12077     12078
     12075     12074     12077     12079     12075     12074     12077     12080
     12076     12074     12077     12078     12076     12074     12077     12079
     12076     12074     12077     12080     12077     12080     12083     12084
     12077     12080     12083     12085     12077     12080     12083     12086
     12078     12077     12080     12081     12078     12077     12080     12082
     12078     12077     12080     12083     12079     12077     12080     12081
     12079     12077     12080     12082     12079     12077     12080     12083
     12080     12083     12086     12087     12080     12083     12086     12088
     12080     12083     12086     12089     12081     12080     12083     12084
     12081     12080     12083     12085     12081     12080     12083     12086
     12082     12080     12083     12084     12082     12080     12083     12085
     12082     12080     12083     12086     12083     12086     12089     12090
     12083     12086     12089     12091     12083     12086     12089     12092
     12084     12083     12086     12087     12084     12083     12086     12088
     12084     12083     12086     12089     12085     12083     12086     12087
     12085     12083     12086     12088     12085     12083     12086     12089
     12087     12086     12089     12090     12087     12086     12089     12091
     12087     12086     12089     12092     12088     12086     12089     12090
     12088     12086     12089     12091     12088     12086     12089     12092
     12093     12094     12109     12110     12093     12094     12109     12111
     12093     12094     12109     12115     12094     12093     12097     12098
     12094     12093     12097     12099     12094     12093     12097     12100
     12094     12093     12101     12102     12094     12093     12101     12103
     12094     12093     12101     12104     12094     12093     12105     12106
     12094     12093     12105     12107     12094     12093     12105     12108
     12094     12109     12115     12112     12095     12094     12093     12097
     12095     12094     12093     12101     12095     12094     12093     12105
     12095     12094     12109     12110     12095     12094     12109     12111
     12095     12094     12109     12115     12096     12094     12093     12097
     12096     12094     12093     12101     12096     12094     12093     12105
     12096     12094     12109     12110     12096     12094     12109     12111
     12096     12094     12109     12115     12097     12093     12094     12109
     12097     12093     12101     12102     12097     12093     12101     12103
     12097     12093     12101     12104     12097     12093     12105     12106
     12097     12093     12105     12107     12097     12093     12105     12108
     12098     12097     12093     12101     12098     12097     12093     12105
     12099     12097     12093     12101     12099     12097     12093     12105
     12100     12097     12093     12101     12100     12097     12093     12105
     12101     12093     12094     12109     12101     12093     12105     12106
     12101     12093     12105     12107     12101     12093     12105     12108
     12102     12101     12093     12105     12103     12101     12093     12105
     12104     12101     12093     12105     12105     12093     12094     12109
     12109     12115     12112     12113     12109     12115     12112     12114
     12109     12115     12112     12116     12110     12109     12115     12112
     12111     12109     12115     12112     12112     12116     12117     12118
     12112     12116     12117     12119     12112     12116     12117     12120
     12113     12112     12116     12117     12114     12112     12116     12117
     12115     12112     12116     12117     12116     12117     12120     12121
     12116     12117     12120     12122     12116     12117     12120     12128
     12117     12120     12122     12123     12117     12120     12128     12129
     12117     12120     12128     12130     12117     12120     12128     12131
     12118     12117     12120     12121     12118     12117     12120     12122
     12118     12117     12120     12128     12119     12117     12120     12121
     12119     12117     12120     12122     12119     12117     12120     12128
     12120     12122     12123     12124     12120     12122     12123     12125
     12120     12128     12131     12132     12121     12120     12122     12123
     12121     12120     12128     12129     12121     12120     12128     12130
     12121     12120     12128     12131     12122     12120     12128     12129
     12122     12120     12128     12130     12122     12120     12128     12131
     12122     12123     12125     12126     12122     12123     12125     12127
     12122     12123     12125     12137     12123     12122     12120     12128
     12123     12125     12137     12138     12123     12125     12137     12139
     12123     12125     12137     12140     12124     12123     12125     12126
     12124     12123     12125     12127     12124     12123     12125     12137
     12125     12137     12140     12141     12125     12137     12140     12142
     12125     12137     12140     12143     12126     12125     12137     12138
     12126     12125     12137     12139     12126     12125     12137     12140
     12127     12125     12137     12138     12127     12125     12137     12139
     12127     12125     12137     12140     12128     12131     12132     12133
     12128     12131     12132     12134     12129     12128     12131     12132
     12130     12128     12131     12132     12131     12132     12134     12135
     12131     12132     12134     12136     12131     12132     12134     12184
     12132     12134     12184     12185     12132     12134     12184     12186
     12132     12134     12184     12187     12133     12132     12134     12135
     12133     12132     12134     12136     12133     12132     12134     12184
     12134     12184     12187     12188     12134     12184     12187     12189
     12134     12184     12187     12190     12135     12134     12184     12185
     12135     12134     12184     12186     12135     12134     12184     12187
     12136     12134     12184     12185     12136     12134     12184     12186
     12136     12134     12184     12187     12137     12140     12143     12144
     12137     12140     12143     12145     12137     12140     12143     12146
     12138     12137     12140     12141     12138     12137     12140     12142
     12138     12137     12140     12143     12139     12137     12140     12141
     12139     12137     12140     12142     12139     12137     12140     12143
     12140     12143     12146     12147     12140     12143     12146     12148
     12140     12143     12146     12149     12141     12140     12143     12144
     12141     12140     12143     12145     12141     12140     12143     12146
     12142     12140     12143     12144     12142     12140     12143     12145
     12142     12140     12143     12146     12143     12146     12149     12150
     12143     12146     12149     12151     12143     12146     12149     12152
     12144     12143     12146     12147     12144     12143     12146     12148
     12144     12143     12146     12149     12145     12143     12146     12147
     12145     12143     12146     12148     12145     12143     12146     12149
     12146     12149     12152     12153     12146     12149     12152     12154
     12146     12149     12152     12155     12147     12146     12149     12150
     12147     12146     12149     12151     12147     12146     12149     12152
     12148     12146     12149     12150     12148     12146     12149     12151
     12148     12146     12149     12152     12149     12152     12155     12156
     12149     12152     12155     12157     12150     12149     12152     12153
     12150     12149     12152     12154     12150     12149     12152     12155
     12151     12149     12152     12153     12151     12149     12152     12154
     12151     12149     12152     12155     12152     12155     12157     12158
     12152     12155     12157     12159     12153     12152     12155     12156
     12153     12152     12155     12157     12154     12152     12155     12156
     12154     12152     12155     12157     12155     12157     12159     12160
     12155     12157     12159     12161     12155     12157     12159     12162
     12156     12155     12157     12158     12156     12155     12157     12159
     12157     12159     12162     12163     12157     12159     12162     12164
     12157     12159     12162     12165     12158     12157     12159     12160
     12158     12157     12159     12161     12158     12157     12159     12162
     12159     12162     12165     12166     12159     12162     12165     12167
     12159     12162     12165     12168     12160     12159     12162     12163
     12160     12159     12162     12164     12160     12159     12162     12165
     12161     12159     12162     12163     12161     12159     12162     12164
     12161     12159     12162     12165     12162     12165     12168     12169
     12162     12165     12168     12170     12162     12165     12168     12171
     12163     12162     12165     12166     12163     12162     12165     12167
     12163     12162     12165     12168     12164     12162     12165     12166
     12164     12162     12165     12167     12164     12162     12165     12168
     12165     12168     12171     12172     12165     12168     12171     12173
     12165     12168     12171     12174     12166     12165     12168     12169
     12166     12165     12168     12170     12166     12165     12168     12171
     12167     12165     12168     12169     12167     12165     12168     12170
     12167     12165     12168     12171     12168     12171     12174     12175
     12168     12171     12174     12176     12168     12171     12174     12177
     12169     12168     12171     12172     12169     12168     12171     12173
     12169     12168     12171     12174     12170     12168     12171     12172
     12170     12168     12171     12173     12170     12168     12171     12174
     12171     12174     12177     12178     12171     12174     12177     12179
     12171     12174     12177     12180     12172     12171     12174     12175
     12172     12171     12174     12176     12172     12171     12174     12177
     12173     12171     12174     12175     12173     12171     12174     12176
     12173     12171     12174     12177     12174     12177     12180     12181
     12174     12177     12180     12182     12174     12177     12180     12183
     12175     12174     12177     12178     12175     12174     12177     12179
     12175     12174     12177     12180     12176     12174     12177     12178
     12176     12174     12177     12179     12176     12174     12177     12180
     12178     12177     12180     12181     12178     12177     12180     12182
     12178     12177     12180     12183     12179     12177     12180     12181
     12179     12177     12180     12182     12179     12177     12180     12183
     12184     12187     12190     12191     12184     12187     12190     12192
     12184     12187     12190     12193     12185     12184     12187     12188
     12185     12184     12187     12189     12185     12184     12187     12190
     12186     12184     12187     12188     12186     12184     12187     12189
     12186     12184     12187     12190     12187     12190     12193     12194
     12187     12190     12193     12195     12187     12190     12193     12196
     12188     12187     12190     12191     12188     12187     12190     12192
     12188     12187     12190     12193     12189     12187     12190     12191
     12189     12187     12190     12192     12189     12187     12190     12193
     12190     12193     12196     12197     12190     12193     12196     12198
     12190     12193     12196     12199     12191     12190     12193     12194
     12191     12190     12193     12195     12191     12190     12193     12196
     12192     12190     12193     12194     12192     12190     12193     12195
     12192     12190     12193     12196     12193     12196     12199     12200
     12193     12196     12199     12201     12193     12196     12199     12202
     12194     12193     12196     12197     12194     12193     12196     12198
     12194     12193     12196     12199     12195     12193     12196     12197
     12195     12193     12196     12198     12195     12193     12196     12199
     12196     12199     12202     12203     12196     12199     12202     12204
     12197     12196     12199     12200     12197     12196     12199     12201
     12197     12196     12199     12202     12198     12196     12199     12200
     12198     12196     12199     12201     12198     12196     12199     12202
     12199     12202     12204     12205     12199     12202     12204     12206
     12200     12199     12202     12203     12200     12199     12202     12204
     12201     12199     12202     12203     12201     12199     12202     12204
     12202     12204     12206     12207     12202     12204     12206     12208
     12202     12204     12206     12209     12203     12202     12204     12205
     12203     12202     12204     12206     12204     12206     12209     12210
     12204     12206     12209     12211     12204     12206     12209     12212
     12205     12204     12206     12207     12205     12204     12206     12208
     12205     12204     12206     12209     12206     12209     12212     12213
     12206     12209     12212     12214     12206     12209     12212     12215
     12207     12206     12209     12210     12207     12206     12209     12211
     12207     12206     12209     12212     12208     12206     12209     12210
     12208     12206     12209     12211     12208     12206     12209     12212
     12209     12212     12215     12216     12209     12212     12215     12217
     12209     12212     12215     12218     12210     12209     12212     12213
     12210     12209     12212     12214     12210     12209     12212     12215
     12211     12209     12212     12213     12211     12209     12212     12214
     12211     12209     12212     12215     12212     12215     12218     12219
     12212     12215     12218     12220     12212     12215     12218     12221
     12213     12212     12215     12216     12213     12212     12215     12217
     12213     12212     12215     12218     12214     12212     12215     12216
     12214     12212     12215     12217     12214     12212     12215     12218
     12215     12218     12221     12222     12215     12218     12221     12223
     12215     12218     12221     12224     12216     12215     12218     12219
     12216     12215     12218     12220     12216     12215     12218     12221
     12217     12215     12218     12219     12217     12215     12218     12220
     12217     12215     12218     12221     12218     12221     12224     12225
     12218     12221     12224     12226     12218     12221     12224     12227
     12219     12218     12221     12222     12219     12218     12221     12223
     12219     12218     12221     12224     12220     12218     12221     12222
     12220     12218     12221     12223     12220     12218     12221     12224
     12221     12224     12227     12228     12221     12224     12227     12229
     12221     12224     12227     12230     12222     12221     12224     12225
     12222     12221     12224     12226     12222     12221     12224     12227
     12223     12221     12224     12225     12223     12221     12224     12226
     12223     12221     12224     12227     12225     12224     12227     12228
     12225     12224     12227     12229     12225     12224     12227     12230
     12226     12224     12227     12228     12226     12224     12227     12229
     12226     12224     12227     12230     12231     12232     12247     12248
     12231     12232     12247     12249     12231     12232     12247     12253
     12232     12231     12235     12236     12232     12231     12235     12237
     12232     12231     12235     12238     12232     12231     12239     12240
     12232     12231     12239     12241     12232     12231     12239     12242
     12232     12231     12243     12244     12232     12231     12243     12245
     12232     12231     12243     12246     12232     12247     12253     12250
     12233     12232     12231     12235     12233     12232     12231     12239
     12233     12232     12231     12243     12233     12232     12247     12248
     12233     12232     12247     12249     12233     12232     12247     12253
     12234     12232     12231     12235     12234     12232     12231     12239
     12234     12232     12231     12243     12234     12232     12247     12248
     12234     12232     12247     12249     12234     12232     12247     12253
     12235     12231     12232     12247     12235     12231     12239     12240
     12235     12231     12239     12241     12235     12231     12239     12242
     12235     12231     12243     12244     12235     12231     12243     12245
     12235     12231     12243     12246     12236     12235     12231     12239
     12236     12235     12231     12243     12237     12235     12231     12239
     12237     12235     12231     12243     12238     12235     12231     12239
     12238     12235     12231     12243     12239     12231     12232     12247
     12239     12231     12243     12244     12239     12231     12243     12245
     12239     12231     12243     12246     12240     12239     12231     12243
     12241     12239     12231     12243     12242     12239     12231     12243
     12243     12231     12232     12247     12247     12253     12250     12251
     12247     12253     12250     12252     12247     12253     12250     12254
     12248     12247     12253     12250     12249     12247     12253     12250
     12250     12254     12255     12256     12250     12254     12255     12257
     12250     12254     12255     12258     12251     12250     12254     12255
     12252     12250     12254     12255     12253     12250     12254     12255
     12254     12255     12258     12259     12254     12255     12258     12260
     12254     12255     12258     12266     12255     12258     12260     12261
     12255     12258     12266     12267     12255     12258     12266     12268
     12255     12258     12266     12269     12256     12255     12258     12259
     12256     12255     12258     12260     12256     12255     12258     12266
     12257     12255     12258     12259     12257     12255     12258     12260
     12257     12255     12258     12266     12258     12260     12261     12262
     12258     12260     12261     12263     12258     12266     12269     12270
     12259     12258     12260     12261     12259     12258     12266     12267
     12259     12258     12266     12268     12259     12258     12266     12269
     12260     12258     12266     12267     12260     12258     12266     12268
     12260     12258     12266     12269     12260     12261     12263     12264
     12260     12261     12263     12265     12260     12261     12263     12275
     12261     12260     12258     12266     12261     12263     12275     12276
     12261     12263     12275     12277     12261     12263     12275     12278
     12262     12261     12263     12264     12262     12261     12263     12265
     12262     12261     12263     12275     12263     12275     12278     12279
     12263     12275     12278     12280     12263     12275     12278     12281
     12264     12263     12275     12276     12264     12263     12275     12277
     12264     12263     12275     12278     12265     12263     12275     12276
     12265     12263     12275     12277     12265     12263     12275     12278
     12266     12269     12270     12271     12266     12269     12270     12272
     12267     12266     12269     12270     12268     12266     12269     12270
     12269     12270     12272     12273     12269     12270     12272     12274
     12269     12270     12272     12322     12270     12272     12322     12323
     12270     12272     12322     12324     12270     12272     12322     12325
     12271     12270     12272     12273     12271     12270     12272     12274
     12271     12270     12272     12322     12272     12322     12325     12326
     12272     12322     12325     12327     12272     12322     12325     12328
     12273     12272     12322     12323     12273     12272     12322     12324
     12273     12272     12322     12325     12274     12272     12322     12323
     12274     12272     12322     12324     12274     12272     12322     12325
     12275     12278     12281     12282     12275     12278     12281     12283
     12275     12278     12281     12284     12276     12275     12278     12279
     12276     12275     12278     12280     12276     12275     12278     12281
     12277     12275     12278     12279     12277     12275     12278     12280
     12277     12275     12278     12281     12278     12281     12284     12285
     12278     12281     12284     12286     12278     12281     12284     12287
     12279     12278     12281     12282     12279     12278     12281     12283
     12279     12278     12281     12284     12280     12278     12281     12282
     12280     12278     12281     12283     12280     12278     12281     12284
     12281     12284     12287     12288     12281     12284     12287     12289
     12281     12284     12287     12290     12282     12281     12284     12285
     12282     12281     12284     12286     12282     12281     12284     12287
     12283     12281     12284     12285     12283     12281     12284     12286
     12283     12281     12284     12287     12284     12287     12290     12291
     12284     12287     12290     12292     12284     12287     12290     12293
     12285     12284     12287     12288     12285     12284     12287     12289
     12285     12284     12287     12290     12286     12284     12287     12288
     12286     12284     12287     12289     12286     12284     12287     12290
     12287     12290     12293     12294     12287     12290     12293     12295
     12288     12287     12290     12291     12288     12287     12290     12292
     12288     12287     12290     12293     12289     12287     12290     12291
     12289     12287     12290     12292     12289     12287     12290     12293
     12290     12293     12295     12296     12290     12293     12295     12297
     12291     12290     12293     12294     12291     12290     12293     12295
     12292     12290     12293     12294     12292     12290     12293     12295
     12293     12295     12297     12298     12293     12295     12297     12299
     12293     12295     12297     12300     12294     12293     12295     12296
     12294     12293     12295     12297     12295     12297     12300     12301
     12295     12297     12300     12302     12295     12297     12300     12303
     12296     12295     12297     12298     12296     12295     12297     12299
     12296     12295     12297     12300     12297     12300     12303     12304
     12297     12300     12303     12305     12297     12300     12303     12306
     12298     12297     12300     12301     12298     12297     12300     12302
     12298     12297     12300     12303     12299     12297     12300     12301
     12299     12297     12300     12302     12299     12297     12300     12303
     12300     12303     12306     12307     12300     12303     12306     12308
     12300     12303     12306     12309     12301     12300     12303     12304
     12301     12300     12303     12305     12301     12300     12303     12306
     12302     12300     12303     12304     12302     12300     12303     12305
     12302     12300     12303     12306     12303     12306     12309     12310
     12303     12306     12309     12311     12303     12306     12309     12312
     12304     12303     12306     12307     12304     12303     12306     12308
     12304     12303     12306     12309     12305     12303     12306     12307
     12305     12303     12306     12308     12305     12303     12306     12309
     12306     12309     12312     12313     12306     12309     12312     12314
     12306     12309     12312     12315     12307     12306     12309     12310
     12307     12306     12309     12311     12307     12306     12309     12312
     12308     12306     12309     12310     12308     12306     12309     12311
     12308     12306     12309     12312     12309     12312     12315     12316
     12309     12312     12315     12317     12309     12312     12315     12318
     12310     12309     12312     12313     12310     12309     12312     12314
     12310     12309     12312     12315     12311     12309     12312     12313
     12311     12309     12312     12314     12311     12309     12312     12315
     12312     12315     12318     12319     12312     12315     12318     12320
     12312     12315     12318     12321     12313     12312     12315     12316
     12313     12312     12315     12317     12313     12312     12315     12318
     12314     12312     12315     12316     12314     12312     12315     12317
     12314     12312     12315     12318     12316     12315     12318     12319
     12316     12315     12318     12320     12316     12315     12318     12321
     12317     12315     12318     12319     12317     12315     12318     12320
     12317     12315     12318     12321     12322     12325     12328     12329
     12322     12325     12328     12330     12322     12325     12328     12331
     12323     12322     12325     12326     12323     12322     12325     12327
     12323     12322     12325     12328     12324     12322     12325     12326
     12324     12322     12325     12327     12324     12322     12325     12328
     12325     12328     12331     12332     12325     12328     12331     12333
     12325     12328     12331     12334     12326     12325     12328     12329
     12326     12325     12328     12330     12326     12325     12328     12331
     12327     12325     12328     12329     12327     12325     12328     12330
     12327     12325     12328     12331     12328     12331     12334     12335
     12328     12331     12334     12336     12328     12331     12334     12337
     12329     12328     12331     12332     12329     12328     12331     12333
     12329     12328     12331     12334     12330     12328     12331     12332
     12330     12328     12331     12333     12330     12328     12331     12334
     12331     12334     12337     12338     12331     12334     12337     12339
     12331     12334     12337     12340     12332     12331     12334     12335
     12332     12331     12334     12336     12332     12331     12334     12337
     12333     12331     12334     12335     12333     12331     12334     12336
     12333     12331     12334     12337     12334     12337     12340     12341
     12334     12337     12340     12342     12335     12334     12337     12338
     12335     12334     12337     12339     12335     12334     12337     12340
     12336     12334     12337     12338     12336     12334     12337     12339
     12336     12334     12337     12340     12337     12340     12342     12343
     12337     12340     12342     12344     12338     12337     12340     12341
     12338     12337     12340     12342     12339     12337     12340     12341
     12339     12337     12340     12342     12340     12342     12344     12345
     12340     12342     12344     12346     12340     12342     12344     12347
     12341     12340     12342     12343     12341     12340     12342     12344
     12342     12344     12347     12348     12342     12344     12347     12349
     12342     12344     12347     12350     12343     12342     12344     12345
     12343     12342     12344     12346     12343     12342     12344     12347
     12344     12347     12350     12351     12344     12347     12350     12352
     12344     12347     12350     12353     12345     12344     12347     12348
     12345     12344     12347     12349     12345     12344     12347     12350
     12346     12344     12347     12348     12346     12344     12347     12349
     12346     12344     12347     12350     12347     12350     12353     12354
     12347     12350     12353     12355     12347     12350     12353     12356
     12348     12347     12350     12351     12348     12347     12350     12352
     12348     12347     12350     12353     12349     12347     12350     12351
     12349     12347     12350     12352     12349     12347     12350     12353
     12350     12353     12356     12357     12350     12353     12356     12358
     12350     12353     12356     12359     12351     12350     12353     12354
     12351     12350     12353     12355     12351     12350     12353     12356
     12352     12350     12353     12354     12352     12350     12353     12355
     12352     12350     12353     12356     12353     12356     12359     12360
     12353     12356     12359     12361     12353     12356     12359     12362
     12354     12353     12356     12357     12354     12353     12356     12358
     12354     12353     12356     12359     12355     12353     12356     12357
     12355     12353     12356     12358     12355     12353     12356     12359
     12356     12359     12362     12363     12356     12359     12362     12364
     12356     12359     12362     12365     12357     12356     12359     12360
     12357     12356     12359     12361     12357     12356     12359     12362
     12358     12356     12359     12360     12358     12356     12359     12361
     12358     12356     12359     12362     12359     12362     12365     12366
     12359     12362     12365     12367     12359     12362     12365     12368
     12360     12359     12362     12363     12360     12359     12362     12364
     12360     12359     12362     12365     12361     12359     12362     12363
     12361     12359     12362     12364     12361     12359     12362     12365
     12363     12362     12365     12366     12363     12362     12365     12367
     12363     12362     12365     12368     12364     12362     12365     12366
     12364     12362     12365     12367     12364     12362     12365     12368
     12369     12370     12385     12386     12369     12370     12385     12387
     12369     12370     12385     12391     12370     12369     12373     12374
     12370     12369     12373     12375     12370     12369     12373     12376
     12370     12369     12377     12378     12370     12369     12377     12379
     12370     12369     12377     12380     12370     12369     12381     12382
     12370     12369     12381     12383     12370     12369     12381     12384
     12370     12385     12391     12388     12371     12370     12369     12373
     12371     12370     12369     12377     12371     12370     12369     12381
     12371     12370     12385     12386     12371     12370     12385     12387
     12371     12370     12385     12391     12372     12370     12369     12373
     12372     12370     12369     12377     12372     12370     12369     12381
     12372     12370     12385     12386     12372     12370     12385     12387
     12372     12370     12385     12391     12373     12369     12370     12385
     12373     12369     12377     12378     12373     12369     12377     12379
     12373     12369     12377     12380     12373     12369     12381     12382
     12373     12369     12381     12383     12373     12369     12381     12384
     12374     12373     12369     12377     12374     12373     12369     12381
     12375     12373     12369     12377     12375     12373     12369     12381
     12376     12373     12369     12377     12376     12373     12369     12381
     12377     12369     12370     12385     12377     12369     12381     12382
     12377     12369     12381     12383     12377     12369     12381     12384
     12378     12377     12369     12381     12379     12377     12369     12381
     12380     12377     12369     12381     12381     12369     12370     12385
     12385     12391     12388     12389     12385     12391     12388     12390
     12385     12391     12388     12392     12386     12385     12391     12388
     12387     12385     12391     12388     12388     12392     12393     12394
     12388     12392     12393     12395     12388     12392     12393     12396
     12389     12388     12392     12393     12390     12388     12392     12393
     12391     12388     12392     12393     12392     12393     12396     12397
     12392     12393     12396     12398     12392     12393     12396     12404
     12393     12396     12398     12399     12393     12396     12404     12405
     12393     12396     12404     12406     12393     12396     12404     12407
     12394     12393     12396     12397     12394     12393     12396     12398
     12394     12393     12396     12404     12395     12393     12396     12397
     12395     12393     12396     12398     12395     12393     12396     12404
     12396     12398     12399     12400     12396     12398     12399     12401
     12396     12404     12407     12408     12397     12396     12398     12399
     12397     12396     12404     12405     12397     12396     12404     12406
     12397     12396     12404     12407     12398     12396     12404     12405
     12398     12396     12404     12406     12398     12396     12404     12407
     12398     12399     12401     12402     12398     12399     12401     12403
     12398     12399     12401     12413     12399     12398     12396     12404
     12399     12401     12413     12414     12399     12401     12413     12415
     12399     12401     12413     12416     12400     12399     12401     12402
     12400     12399     12401     12403     12400     12399     12401     12413
     12401     12413     12416     12417     12401     12413     12416     12418
     12401     12413     12416     12419     12402     12401     12413     12414
     12402     12401     12413     12415     12402     12401     12413     12416
     12403     12401     12413     12414     12403     12401     12413     12415
     12403     12401     12413     12416     12404     12407     12408     12409
     12404     12407     12408     12410     12405     12404     12407     12408
     12406     12404     12407     12408     12407     12408     12410     12411
     12407     12408     12410     12412     12407     12408     12410     12460
     12408     12410     12460     12461     12408     12410     12460     12462
     12408     12410     12460     12463     12409     12408     12410     12411
     12409     12408     12410     12412     12409     12408     12410     12460
     12410     12460     12463     12464     12410     12460     12463     12465
     12410     12460     12463     12466     12411     12410     12460     12461
     12411     12410     12460     12462     12411     12410     12460     12463
     12412     12410     12460     12461     12412     12410     12460     12462
     12412     12410     12460     12463     12413     12416     12419     12420
     12413     12416     12419     12421     12413     12416     12419     12422
     12414     12413     12416     12417     12414     12413     12416     12418
     12414     12413     12416     12419     12415     12413     12416     12417
     12415     12413     12416     12418     12415     12413     12416     12419
     12416     12419     12422     12423     12416     12419     12422     12424
     12416     12419     12422     12425     12417     12416     12419     12420
     12417     12416     12419     12421     12417     12416     12419     12422
     12418     12416     12419     12420     12418     12416     12419     12421
     12418     12416     12419     12422     12419     12422     12425     12426
     12419     12422     12425     12427     12419     12422     12425     12428
     12420     12419     12422     12423     12420     12419     12422     12424
     12420     12419     12422     12425     12421     12419     12422     12423
     12421     12419     12422     12424     12421     12419     12422     12425
     12422     12425     12428     12429     12422     12425     12428     12430
     12422     12425     12428     12431     12423     12422     12425     12426
     12423     12422     12425     12427     12423     12422     12425     12428
     12424     12422     12425     12426     12424     12422     12425     12427
     12424     12422     12425     12428     12425     12428     12431     12432
     12425     12428     12431     12433     12426     12425     12428     12429
     12426     12425     12428     12430     12426     12425     12428     12431
     12427     12425     12428     12429     12427     12425     12428     12430
     12427     12425     12428     12431     12428     12431     12433     12434
     12428     12431     12433     12435     12429     12428     12431     12432
     12429     12428     12431     12433     12430     12428     12431     12432
     12430     12428     12431     12433     12431     12433     12435     12436
     12431     12433     12435     12437     12431     12433     12435     12438
     12432     12431     12433     12434     12432     12431     12433     12435
     12433     12435     12438     12439     12433     12435     12438     12440
     12433     12435     12438     12441     12434     12433     12435     12436
     12434     12433     12435     12437     12434     12433     12435     12438
     12435     12438     12441     12442     12435     12438     12441     12443
     12435     12438     12441     12444     12436     12435     12438     12439
     12436     12435     12438     12440     12436     12435     12438     12441
     12437     12435     12438     12439     12437     12435     12438     12440
     12437     12435     12438     12441     12438     12441     12444     12445
     12438     12441     12444     12446     12438     12441     12444     12447
     12439     12438     12441     12442     12439     12438     12441     12443
     12439     12438     12441     12444     12440     12438     12441     12442
     12440     12438     12441     12443     12440     12438     12441     12444
     12441     12444     12447     12448     12441     12444     12447     12449
     12441     12444     12447     12450     12442     12441     12444     12445
     12442     12441     12444     12446     12442     12441     12444     12447
     12443     12441     12444     12445     12443     12441     12444     12446
     12443     12441     12444     12447     12444     12447     12450     12451
     12444     12447     12450     12452     12444     12447     12450     12453
     12445     12444     12447     12448     12445     12444     12447     12449
     12445     12444     12447     12450     12446     12444     12447     12448
     12446     12444     12447     12449     12446     12444     12447     12450
     12447     12450     12453     12454     12447     12450     12453     12455
     12447     12450     12453     12456     12448     12447     12450     12451
     12448     12447     12450     12452     12448     12447     12450     12453
     12449     12447     12450     12451     12449     12447     12450     12452
     12449     12447     12450     12453     12450     12453     12456     12457
     12450     12453     12456     12458     12450     12453     12456     12459
     12451     12450     12453     12454     12451     12450     12453     12455
     12451     12450     12453     12456     12452     12450     12453     12454
     12452     12450     12453     12455     12452     12450     12453     12456
     12454     12453     12456     12457     12454     12453     12456     12458
     12454     12453     12456     12459     12455     12453     12456     12457
     12455     12453     12456     12458     12455     12453     12456     12459
     12460     12463     12466     12467     12460     12463     12466     12468
     12460     12463     12466     12469     12461     12460     12463     12464
     12461     12460     12463     12465     12461     12460     12463     12466
     12462     12460     12463     12464     12462     12460     12463     12465
     12462     12460     12463     12466     12463     12466     12469     12470
     12463     12466     12469     12471     12463     12466     12469     12472
     12464     12463     12466     12467     12464     12463     12466     12468
     12464     12463     12466     12469     12465     12463     12466     12467
     12465     12463     12466     12468     12465     12463     12466     12469
     12466     12469     12472     12473     12466     12469     12472     12474
     12466     12469     12472     12475     12467     12466     12469     12470
     12467     12466     12469     12471     12467     12466     12469     12472
     12468     12466     12469     12470     12468     12466     12469     12471
     12468     12466     12469     12472     12469     12472     12475     12476
     12469     12472     12475     12477     12469     12472     12475     12478
     12470     12469     12472     12473     12470     12469     12472     12474
     12470     12469     12472     12475     12471     12469     12472     12473
     12471     12469     12472     12474     12471     12469     12472     12475
     12472     12475     12478     12479     12472     12475     12478     12480
     12473     12472     12475     12476     12473     12472     12475     12477
     12473     12472     12475     12478     12474     12472     12475     12476
     12474     12472     12475     12477     12474     12472     12475     12478
     12475     12478     12480     12481     12475     12478     12480     12482
     12476     12475     12478     12479     12476     12475     12478     12480
     12477     12475     12478     12479     12477     12475     12478     12480
     12478     12480     12482     12483     12478     12480     12482     12484
     12478     12480     12482     12485     12479     12478     12480     12481
     12479     12478     12480     12482     12480     12482     12485     12486
     12480     12482     12485     12487     12480     12482     12485     12488
     12481     12480     12482     12483     12481     12480     12482     12484
     12481     12480     12482     12485     12482     12485     12488     12489
     12482     12485     12488     12490     12482     12485     12488     12491
     12483     12482     12485     12486     12483     12482     12485     12487
     12483     12482     12485     12488     12484     12482     12485     12486
     12484     12482     12485     12487     12484     12482     12485     12488
     12485     12488     12491     12492     12485     12488     12491     12493
     12485     12488     12491     12494     12486     12485     12488     12489
     12486     12485     12488     12490     12486     12485     12488     12491
     12487     12485     12488     12489     12487     12485     12488     12490
     12487     12485     12488     12491     12488     12491     12494     12495
     12488     12491     12494     12496     12488     12491     12494     12497
     12489     12488     12491     12492     12489     12488     12491     12493
     12489     12488     12491     12494     12490     12488     12491     12492
     12490     12488     12491     12493     12490     12488     12491     12494
     12491     12494     12497     12498     12491     12494     12497     12499
     12491     12494     12497     12500     12492     12491     12494     12495
     12492     12491     12494     12496     12492     12491     12494     12497
     12493     12491     12494     12495     12493     12491     12494     12496
     12493     12491     12494     12497     12494     12497     12500     12501
     12494     12497     12500     12502     12494     12497     12500     12503
     12495     12494     12497     12498     12495     12494     12497     12499
     12495     12494     12497     12500     12496     12494     12497     12498
     12496     12494     12497     12499     12496     12494     12497     12500
     12497     12500     12503     12504     12497     12500     12503     12505
     12497     12500     12503     12506     12498     12497     12500     12501
     12498     12497     12500     12502     12498     12497     12500     12503
     12499     12497     12500     12501     12499     12497     12500     12502
     12499     12497     12500     12503     12501     12500     12503     12504
     12501     12500     12503     12505     12501     12500     12503     12506
     12502     12500     12503     12504     12502     12500     12503     12505
     12502     12500     12503     12506     12507     12508     12523     12524
     12507     12508     12523     12525     12507     12508     12523     12529
     12508     12507     12511     12512     12508     12507     12511     12513
     12508     12507     12511     12514     12508     12507     12515     12516
     12508     12507     12515     12517     12508     12507     12515     12518
     12508     12507     12519     12520     12508     12507     12519     12521
     12508     12507     12519     12522     12508     12523     12529     12526
     12509     12508     12507     12511     12509     12508     12507     12515
     12509     12508     12507     12519     12509     12508     12523     12524
     12509     12508     12523     12525     12509     12508     12523     12529
     12510     12508     12507     12511     12510     12508     12507     12515
     12510     12508     12507     12519     12510     12508     12523     12524
     12510     12508     12523     12525     12510     12508     12523     12529
     12511     12507     12508     12523     12511     12507     12515     12516
     12511     12507     12515     12517     12511     12507     12515     12518
     12511     12507     12519     12520     12511     12507     12519     12521
     12511     12507     12519     12522     12512     12511     12507     12515
     12512     12511     12507     12519     12513     12511     12507     12515
     12513     12511     12507     12519     12514     12511     12507     12515
     12514     12511     12507     12519     12515     12507     12508     12523
     12515     12507     12519     12520     12515     12507     12519     12521
     12515     12507     12519     12522     12516     12515     12507     12519
     12517     12515     12507     12519     12518     12515     12507     12519
     12519     12507     12508     12523     12523     12529     12526     12527
     12523     12529     12526     12528     12523     12529     12526     12530
     12524     12523     12529     12526     12525     12523     12529     12526
     12526     12530     12531     12532     12526     12530     12531     12533
     12526     12530     12531     12534     12527     12526     12530     12531
     12528     12526     12530     12531     12529     12526     12530     12531
     12530     12531     12534     12535     12530     12531     12534     12536
     12530     12531     12534     12542     12531     12534     12536     12537
     12531     12534     12542     12543     12531     12534     12542     12544
     12531     12534     12542     12545     12532     12531     12534     12535
     12532     12531     12534     12536     12532     12531     12534     12542
     12533     12531     12534     12535     12533     12531     12534     12536
     12533     12531     12534     12542     12534     12536     12537     12538
     12534     12536     12537     12539     12534     12542     12545     12546
     12535     12534     12536     12537     12535     12534     12542     12543
     12535     12534     12542     12544     12535     12534     12542     12545
     12536     12534     12542     12543     12536     12534     12542     12544
     12536     12534     12542     12545     12536     12537     12539     12540
     12536     12537     12539     12541     12536     12537     12539     12551
     12537     12536     12534     12542     12537     12539     12551     12552
     12537     12539     12551     12553     12537     12539     12551     12554
     12538     12537     12539     12540     12538     12537     12539     12541
     12538     12537     12539     12551     12539     12551     12554     12555
     12539     12551     12554     12556     12539     12551     12554     12557
     12540     12539     12551     12552     12540     12539     12551     12553
     12540     12539     12551     12554     12541     12539     12551     12552
     12541     12539     12551     12553     12541     12539     12551     12554
     12542     12545     12546     12547     12542     12545     12546     12548
     12543     12542     12545     12546     12544     12542     12545     12546
     12545     12546     12548     12549     12545     12546     12548     12550
     12545     12546     12548     12598     12546     12548     12598     12599
     12546     12548     12598     12600     12546     12548     12598     12601
     12547     12546     12548     12549     12547     12546     12548     12550
     12547     12546     12548     12598     12548     12598     12601     12602
     12548     12598     12601     12603     12548     12598     12601     12604
     12549     12548     12598     12599     12549     12548     12598     12600
     12549     12548     12598     12601     12550     12548     12598     12599
     12550     12548     12598     12600     12550     12548     12598     12601
     12551     12554     12557     12558     12551     12554     12557     12559
     12551     12554     12557     12560     12552     12551     12554     12555
     12552     12551     12554     12556     12552     12551     12554     12557
     12553     12551     12554     12555     12553     12551     12554     12556
     12553     12551     12554     12557     12554     12557     12560     12561
     12554     12557     12560     12562     12554     12557     12560     12563
     12555     12554     12557     12558     12555     12554     12557     12559
     12555     12554     12557     12560     12556     12554     12557     12558
     12556     12554     12557     12559     12556     12554     12557     12560
     12557     12560     12563     12564     12557     12560     12563     12565
     12557     12560     12563     12566     12558     12557     12560     12561
     12558     12557     12560     12562     12558     12557     12560     12563
     12559     12557     12560     12561     12559     12557     12560     12562
     12559     12557     12560     12563     12560     12563     12566     12567
     12560     12563     12566     12568     12560     12563     12566     12569
     12561     12560     12563     12564     12561     12560     12563     12565
     12561     12560     12563     12566     12562     12560     12563     12564
     12562     12560     12563     12565     12562     12560     12563     12566
     12563     12566     12569     12570     12563     12566     12569     12571
     12564     12563     12566     12567     12564     12563     12566     12568
     12564     12563     12566     12569     12565     12563     12566     12567
     12565     12563     12566     12568     12565     12563     12566     12569
     12566     12569     12571     12572     12566     12569     12571     12573
     12567     12566     12569     12570     12567     12566     12569     12571
     12568     12566     12569     12570     12568     12566     12569     12571
     12569     12571     12573     12574     12569     12571     12573     12575
     12569     12571     12573     12576     12570     12569     12571     12572
     12570     12569     12571     12573     12571     12573     12576     12577
     12571     12573     12576     12578     12571     12573     12576     12579
     12572     12571     12573     12574     12572     12571     12573     12575
     12572     12571     12573     12576     12573     12576     12579     12580
     12573     12576     12579     12581     12573     12576     12579     12582
     12574     12573     12576     12577     12574     12573     12576     12578
     12574     12573     12576     12579     12575     12573     12576     12577
     12575     12573     12576     12578     12575     12573     12576     12579
     12576     12579     12582     12583     12576     12579     12582     12584
     12576     12579     12582     12585     12577     12576     12579     12580
     12577     12576     12579     12581     12577     12576     12579     12582
     12578     12576     12579     12580     12578     12576     12579     12581
     12578     12576     12579     12582     12579     12582     12585     12586
     12579     12582     12585     12587     12579     12582     12585     12588
     12580     12579     12582     12583     12580     12579     12582     12584
     12580     12579     12582     12585     12581     12579     12582     12583
     12581     12579     12582     12584     12581     12579     12582     12585
     12582     12585     12588     12589     12582     12585     12588     12590
     12582     12585     12588     12591     12583     12582     12585     12586
     12583     12582     12585     12587     12583     12582     12585     12588
     12584     12582     12585     12586     12584     12582     12585     12587
     12584     12582     12585     12588     12585     12588     12591     12592
     12585     12588     12591     12593     12585     12588     12591     12594
     12586     12585     12588     12589     12586     12585     12588     12590
     12586     12585     12588     12591     12587     12585     12588     12589
     12587     12585     12588     12590     12587     12585     12588     12591
     12588     12591     12594     12595     12588     12591     12594     12596
     12588     12591     12594     12597     12589     12588     12591     12592
     12589     12588     12591     12593     12589     12588     12591     12594
     12590     12588     12591     12592     12590     12588     12591     12593
     12590     12588     12591     12594     12592     12591     12594     12595
     12592     12591     12594     12596     12592     12591     12594     12597
     12593     12591     12594     12595     12593     12591     12594     12596
     12593     12591     12594     12597     12598     12601     12604     12605
     12598     12601     12604     12606     12598     12601     12604     12607
     12599     12598     12601     12602     12599     12598     12601     12603
     12599     12598     12601     12604     12600     12598     12601     12602
     12600     12598     12601     12603     12600     12598     12601     12604
     12601     12604     12607     12608     12601     12604     12607     12609
     12601     12604     12607     12610     12602     12601     12604     12605
     12602     12601     12604     12606     12602     12601     12604     12607
     12603     12601     12604     12605     12603     12601     12604     12606
     12603     12601     12604     12607     12604     12607     12610     12611
     12604     12607     12610     12612     12604     12607     12610     12613
     12605     12604     12607     12608     12605     12604     12607     12609
     12605     12604     12607     12610     12606     12604     12607     12608
     12606     12604     12607     12609     12606     12604     12607     12610
     12607     12610     12613     12614     12607     12610     12613     12615
     12607     12610     12613     12616     12608     12607     12610     12611
     12608     12607     12610     12612     12608     12607     12610     12613
     12609     12607     12610     12611     12609     12607     12610     12612
     12609     12607     12610     12613     12610     12613     12616     12617
     12610     12613     12616     12618     12611     12610     12613     12614
     12611     12610     12613     12615     12611     12610     12613     12616
     12612     12610     12613     12614     12612     12610     12613     12615
     12612     12610     12613     12616     12613     12616     12618     12619
     12613     12616     12618     12620     12614     12613     12616     12617
     12614     12613     12616     12618     12615     12613     12616     12617
     12615     12613     12616     12618     12616     12618     12620     12621
     12616     12618     12620     12622     12616     12618     12620     12623
     12617     12616     12618     12619     12617     12616     12618     12620
     12618     12620     12623     12624     12618     12620     12623     12625
     12618     12620     12623     12626     12619     12618     12620     12621
     12619     12618     12620     12622     12619     12618     12620     12623
     12620     12623     12626     12627     12620     12623     12626     12628
     12620     12623     12626     12629     12621     12620     12623     12624
     12621     12620     12623     12625     12621     12620     12623     12626
     12622     12620     12623     12624     12622     12620     12623     12625
     12622     12620     12623     12626     12623     12626     12629     12630
     12623     12626     12629     12631     12623     12626     12629     12632
     12624     12623     12626     12627     12624     12623     12626     12628
     12624     12623     12626     12629     12625     12623     12626     12627
     12625     12623     12626     12628     12625     12623     12626     12629
     12626     12629     12632     12633     12626     12629     12632     12634
     12626     12629     12632     12635     12627     12626     12629     12630
     12627     12626     12629     12631     12627     12626     12629     12632
     12628     12626     12629     12630     12628     12626     12629     12631
     12628     12626     12629     12632     12629     12632     12635     12636
     12629     12632     12635     12637     12629     12632     12635     12638
     12630     12629     12632     12633     12630     12629     12632     12634
     12630     12629     12632     12635     12631     12629     12632     12633
     12631     12629     12632     12634     12631     12629     12632     12635
     12632     12635     12638     12639     12632     12635     12638     12640
     12632     12635     12638     12641     12633     12632     12635     12636
     12633     12632     12635     12637     12633     12632     12635     12638
     12634     12632     12635     12636     12634     12632     12635     12637
     12634     12632     12635     12638     12635     12638     12641     12642
     12635     12638     12641     12643     12635     12638     12641     12644
     12636     12635     12638     12639     12636     12635     12638     12640
     12636     12635     12638     12641     12637     12635     12638     12639
     12637     12635     12638     12640     12637     12635     12638     12641
     12639     12638     12641     12642     12639     12638     12641     12643
     12639     12638     12641     12644     12640     12638     12641     12642
     12640     12638     12641     12643     12640     12638     12641     12644
     12645     12646     12661     12662     12645     12646     12661     12663
     12645     12646     12661     12667     12646     12645     12649     12650
     12646     12645     12649     12651     12646     12645     12649     12652
     12646     12645     12653     12654     12646     12645     12653     12655
     12646     12645     12653     12656     12646     12645     12657     12658
     12646     12645     12657     12659     12646     12645     12657     12660
     12646     12661     12667     12664     12647     12646     12645     12649
     12647     12646     12645     12653     12647     12646     12645     12657
     12647     12646     12661     12662     12647     12646     12661     12663
     12647     12646     12661     12667     12648     12646     12645     12649
     12648     12646     12645     12653     12648     12646     12645     12657
     12648     12646     12661     12662     12648     12646     12661     12663
     12648     12646     12661     12667     12649     12645     12646     12661
     12649     12645     12653     12654     12649     12645     12653     12655
     12649     12645     12653     12656     12649     12645     12657     12658
     12649     12645     12657     12659     12649     12645     12657     12660
     12650     12649     12645     12653     12650     12649     12645     12657
     12651     12649     12645     12653     12651     12649     12645     12657
     12652     12649     12645     12653     12652     12649     12645     12657
     12653     12645     12646     12661     12653     12645     12657     12658
     12653     12645     12657     12659     12653     12645     12657     12660
     12654     12653     12645     12657     12655     12653     12645     12657
     12656     12653     12645     12657     12657     12645     12646     12661
     12661     12667     12664     12665     12661     12667     12664     12666
     12661     12667     12664     12668     12662     12661     12667     12664
     12663     12661     12667     12664     12664     12668     12669     12670
     12664     12668     12669     12671     12664     12668     12669     12672
     12665     12664     12668     12669     12666     12664     12668     12669
     12667     12664     12668     12669     12668     12669     12672     12673
     12668     12669     12672     12674     12668     12669     12672     12680
     12669     12672     12674     12675     12669     12672     12680     12681
     12669     12672     12680     12682     12669     12672     12680     12683
     12670     12669     12672     12673     12670     12669     12672     12674
     12670     12669     12672     12680     12671     12669     12672     12673
     12671     12669     12672     12674     12671     12669     12672     12680
     12672     12674     12675     12676     12672     12674     12675     12677
     12672     12680     12683     12684     12673     12672     12674     12675
     12673     12672     12680     12681     12673     12672     12680     12682
     12673     12672     12680     12683     12674     12672     12680     12681
     12674     12672     12680     12682     12674     12672     12680     12683
     12674     12675     12677     12678     12674     12675     12677     12679
     12674     12675     12677     12689     12675     12674     12672     12680
     12675     12677     12689     12690     12675     12677     12689     12691
     12675     12677     12689     12692     12676     12675     12677     12678
     12676     12675     12677     12679     12676     12675     12677     12689
     12677     12689     12692     12693     12677     12689     12692     12694
     12677     12689     12692     12695     12678     12677     12689     12690
     12678     12677     12689     12691     12678     12677     12689     12692
     12679     12677     12689     12690     12679     12677     12689     12691
     12679     12677     12689     12692     12680     12683     12684     12685
     12680     12683     12684     12686     12681     12680     12683     12684
     12682     12680     12683     12684     12683     12684     12686     12687
     12683     12684     12686     12688     12683     12684     12686     12736
     12684     12686     12736     12737     12684     12686     12736     12738
     12684     12686     12736     12739     12685     12684     12686     12687
     12685     12684     12686     12688     12685     12684     12686     12736
     12686     12736     12739     12740     12686     12736     12739     12741
     12686     12736     12739     12742     12687     12686     12736     12737
     12687     12686     12736     12738     12687     12686     12736     12739
     12688     12686     12736     12737     12688     12686     12736     12738
     12688     12686     12736     12739     12689     12692     12695     12696
     12689     12692     12695     12697     12689     12692     12695     12698
     12690     12689     12692     12693     12690     12689     12692     12694
     12690     12689     12692     12695     12691     12689     12692     12693
     12691     12689     12692     12694     12691     12689     12692     12695
     12692     12695     12698     12699     12692     12695     12698     12700
     12692     12695     12698     12701     12693     12692     12695     12696
     12693     12692     12695     12697     12693     12692     12695     12698
     12694     12692     12695     12696     12694     12692     12695     12697
     12694     12692     12695     12698     12695     12698     12701     12702
     12695     12698     12701     12703     12695     12698     12701     12704
     12696     12695     12698     12699     12696     12695     12698     12700
     12696     12695     12698     12701     12697     12695     12698     12699
     12697     12695     12698     12700     12697     12695     12698     12701
     12698     12701     12704     12705     12698     12701     12704     12706
     12698     12701     12704     12707     12699     12698     12701     12702
     12699     12698     12701     12703     12699     12698     12701     12704
     12700     12698     12701     12702     12700     12698     12701     12703
     12700     12698     12701     12704     12701     12704     12707     12708
     12701     12704     12707     12709     12702     12701     12704     12705
     12702     12701     12704     12706     12702     12701     12704     12707
     12703     12701     12704     12705     12703     12701     12704     12706
     12703     12701     12704     12707     12704     12707     12709     12710
     12704     12707     12709     12711     12705     12704     12707     12708
     12705     12704     12707     12709     12706     12704     12707     12708
     12706     12704     12707     12709     12707     12709     12711     12712
     12707     12709     12711     12713     12707     12709     12711     12714
     12708     12707     12709     12710     12708     12707     12709     12711
     12709     12711     12714     12715     12709     12711     12714     12716
     12709     12711     12714     12717     12710     12709     12711     12712
     12710     12709     12711     12713     12710     12709     12711     12714
     12711     12714     12717     12718     12711     12714     12717     12719
     12711     12714     12717     12720     12712     12711     12714     12715
     12712     12711     12714     12716     12712     12711     12714     12717
     12713     12711     12714     12715     12713     12711     12714     12716
     12713     12711     12714     12717     12714     12717     12720     12721
     12714     12717     12720     12722     12714     12717     12720     12723
     12715     12714     12717     12718     12715     12714     12717     12719
     12715     12714     12717     12720     12716     12714     12717     12718
     12716     12714     12717     12719     12716     12714     12717     12720
     12717     12720     12723     12724     12717     12720     12723     12725
     12717     12720     12723     12726     12718     12717     12720     12721
     12718     12717     12720     12722     12718     12717     12720     12723
     12719     12717     12720     12721     12719     12717     12720     12722
     12719     12717     12720     12723     12720     12723     12726     12727
     12720     12723     12726     12728     12720     12723     12726     12729
     12721     12720     12723     12724     12721     12720     12723     12725
     12721     12720     12723     12726     12722     12720     12723     12724
     12722     12720     12723     12725     12722     12720     12723     12726
     12723     12726     12729     12730     12723     12726     12729     12731
     12723     12726     12729     12732     12724     12723     12726     12727
     12724     12723     12726     12728     12724     12723     12726     12729
     12725     12723     12726     12727     12725     12723     12726     12728
     12725     12723     12726     12729     12726     12729     12732     12733
     12726     12729     12732     12734     12726     12729     12732     12735
     12727     12726     12729     12730     12727     12726     12729     12731
     12727     12726     12729     12732     12728     12726     12729     12730
     12728     12726     12729     12731     12728     12726     12729     12732
     12730     12729     12732     12733     12730     12729     12732     12734
     12730     12729     12732     12735     12731     12729     12732     12733
     12731     12729     12732     12734     12731     12729     12732     12735
     12736     12739     12742     12743     12736     12739     12742     12744
     12736     12739     12742     12745     12737     12736     12739     12740
     12737     12736     12739     12741     12737     12736     12739     12742
     12738     12736     12739     12740     12738     12736     12739     12741
     12738     12736     12739     12742     12739     12742     12745     12746
     12739     12742     12745     12747     12739     12742     12745     12748
     12740     12739     12742     12743     12740     12739     12742     12744
     12740     12739     12742     12745     12741     12739     12742     12743
     12741     12739     12742     12744     12741     12739     12742     12745
     12742     12745     12748     12749     12742     12745     12748     12750
     12742     12745     12748     12751     12743     12742     12745     12746
     12743     12742     12745     12747     12743     12742     12745     12748
     12744     12742     12745     12746     12744     12742     12745     12747
     12744     12742     12745     12748     12745     12748     12751     12752
     12745     12748     12751     12753     12745     12748     12751     12754
     12746     12745     12748     12749     12746     12745     12748     12750
     12746     12745     12748     12751     12747     12745     12748     12749
     12747     12745     12748     12750     12747     12745     12748     12751
     12748     12751     12754     12755     12748     12751     12754     12756
     12749     12748     12751     12752     12749     12748     12751     12753
     12749     12748     12751     12754     12750     12748     12751     12752
     12750     12748     12751     12753     12750     12748     12751     12754
     12751     12754     12756     12757     12751     12754     12756     12758
     12752     12751     12754     12755     12752     12751     12754     12756
     12753     12751     12754     12755     12753     12751     12754     12756
     12754     12756     12758     12759     12754     12756     12758     12760
     12754     12756     12758     12761     12755     12754     12756     12757
     12755     12754     12756     12758     12756     12758     12761     12762
     12756     12758     12761     12763     12756     12758     12761     12764
     12757     12756     12758     12759     12757     12756     12758     12760
     12757     12756     12758     12761     12758     12761     12764     12765
     12758     12761     12764     12766     12758     12761     12764     12767
     12759     12758     12761     12762     12759     12758     12761     12763
     12759     12758     12761     12764     12760     12758     12761     12762
     12760     12758     12761     12763     12760     12758     12761     12764
     12761     12764     12767     12768     12761     12764     12767     12769
     12761     12764     12767     12770     12762     12761     12764     12765
     12762     12761     12764     12766     12762     12761     12764     12767
     12763     12761     12764     12765     12763     12761     12764     12766
     12763     12761     12764     12767     12764     12767     12770     12771
     12764     12767     12770     12772     12764     12767     12770     12773
     12765     12764     12767     12768     12765     12764     12767     12769
     12765     12764     12767     12770     12766     12764     12767     12768
     12766     12764     12767     12769     12766     12764     12767     12770
     12767     12770     12773     12774     12767     12770     12773     12775
     12767     12770     12773     12776     12768     12767     12770     12771
     12768     12767     12770     12772     12768     12767     12770     12773
     12769     12767     12770     12771     12769     12767     12770     12772
     12769     12767     12770     12773     12770     12773     12776     12777
     12770     12773     12776     12778     12770     12773     12776     12779
     12771     12770     12773     12774     12771     12770     12773     12775
     12771     12770     12773     12776     12772     12770     12773     12774
     12772     12770     12773     12775     12772     12770     12773     12776
     12773     12776     12779     12780     12773     12776     12779     12781
     12773     12776     12779     12782     12774     12773     12776     12777
     12774     12773     12776     12778     12774     12773     12776     12779
     12775     12773     12776     12777     12775     12773     12776     12778
     12775     12773     12776     12779     12777     12776     12779     12780
     12777     12776     12779     12781     12777     12776     12779     12782
     12778     12776     12779     12780     12778     12776     12779     12781
     12778     12776     12779     12782     12783     12784     12799     12800
     12783     12784     12799     12801     12783     12784     12799     12805
     12784     12783     12787     12788     12784     12783     12787     12789
     12784     12783     12787     12790     12784     12783     12791     12792
     12784     12783     12791     12793     12784     12783     12791     12794
     12784     12783     12795     12796     12784     12783     12795     12797
     12784     12783     12795     12798     12784     12799     12805     12802
     12785     12784     12783     12787     12785     12784     12783     12791
     12785     12784     12783     12795     12785     12784     12799     12800
     12785     12784     12799     12801     12785     12784     12799     12805
     12786     12784     12783     12787     12786     12784     12783     12791
     12786     12784     12783     12795     12786     12784     12799     12800
     12786     12784     12799     12801     12786     12784     12799     12805
     12787     12783     12784     12799     12787     12783     12791     12792
     12787     12783     12791     12793     12787     12783     12791     12794
     12787     12783     12795     12796     12787     12783     12795     12797
     12787     12783     12795     12798     12788     12787     12783     12791
     12788     12787     12783     12795     12789     12787     12783     12791
     12789     12787     12783     12795     12790     12787     12783     12791
     12790     12787     12783     12795     12791     12783     12784     12799
     12791     12783     12795     12796     12791     12783     12795     12797
     12791     12783     12795     12798     12792     12791     12783     12795
     12793     12791     12783     12795     12794     12791     12783     12795
     12795     12783     12784     12799     12799     12805     12802     12803
     12799     12805     12802     12804     12799     12805     12802     12806
     12800     12799     12805     12802     12801     12799     12805     12802
     12802     12806     12807     12808     12802     12806     12807     12809
     12802     12806     12807     12810     12803     12802     12806     12807
     12804     12802     12806     12807     12805     12802     12806     12807
     12806     12807     12810     12811     12806     12807     12810     12812
     12806     12807     12810     12818     12807     12810     12812     12813
     12807     12810     12818     12819     12807     12810     12818     12820
     12807     12810     12818     12821     12808     12807     12810     12811
     12808     12807     12810     12812     12808     12807     12810     12818
     12809     12807     12810     12811     12809     12807     12810     12812
     12809     12807     12810     12818     12810     12812     12813     12814
     12810     12812     12813     12815     12810     12818     12821     12822
     12811     12810     12812     12813     12811     12810     12818     12819
     12811     12810     12818     12820     12811     12810     12818     12821
     12812     12810     12818     12819     12812     12810     12818     12820
     12812     12810     12818     12821     12812     12813     12815     12816
     12812     12813     12815     12817     12812     12813     12815     12827
     12813     12812     12810     12818     12813     12815     12827     12828
     12813     12815     12827     12829     12813     12815     12827     12830
     12814     12813     12815     12816     12814     12813     12815     12817
     12814     12813     12815     12827     12815     12827     12830     12831
     12815     12827     12830     12832     12815     12827     12830     12833
     12816     12815     12827     12828     12816     12815     12827     12829
     12816     12815     12827     12830     12817     12815     12827     12828
     12817     12815     12827     12829     12817     12815     12827     12830
     12818     12821     12822     12823     12818     12821     12822     12824
     12819     12818     12821     12822     12820     12818     12821     12822
     12821     12822     12824     12825     12821     12822     12824     12826
     12821     12822     12824     12874     12822     12824     12874     12875
     12822     12824     12874     12876     12822     12824     12874     12877
     12823     12822     12824     12825     12823     12822     12824     12826
     12823     12822     12824     12874     12824     12874     12877     12878
     12824     12874     12877     12879     12824     12874     12877     12880
     12825     12824     12874     12875     12825     12824     12874     12876
     12825     12824     12874     12877     12826     12824     12874     12875
     12826     12824     12874     12876     12826     12824     12874     12877
     12827     12830     12833     12834     12827     12830     12833     12835
     12827     12830     12833     12836     12828     12827     12830     12831
     12828     12827     12830     12832     12828     12827     12830     12833
     12829     12827     12830     12831     12829     12827     12830     12832
     12829     12827     12830     12833     12830     12833     12836     12837
     12830     12833     12836     12838     12830     12833     12836     12839
     12831     12830     12833     12834     12831     12830     12833     12835
     12831     12830     12833     12836     12832     12830     12833     12834
     12832     12830     12833     12835     12832     12830     12833     12836
     12833     12836     12839     12840     12833     12836     12839     12841
     12833     12836     12839     12842     12834     12833     12836     12837
     12834     12833     12836     12838     12834     12833     12836     12839
     12835     12833     12836     12837     12835     12833     12836     12838
     12835     12833     12836     12839     12836     12839     12842     12843
     12836     12839     12842     12844     12836     12839     12842     12845
     12837     12836     12839     12840     12837     12836     12839     12841
     12837     12836     12839     12842     12838     12836     12839     12840
     12838     12836     12839     12841     12838     12836     12839     12842
     12839     12842     12845     12846     12839     12842     12845     12847
     12840     12839     12842     12843     12840     12839     12842     12844
     12840     12839     12842     12845     12841     12839     12842     12843
     12841     12839     12842     12844     12841     12839     12842     12845
     12842     12845     12847     12848     12842     12845     12847     12849
     12843     12842     12845     12846     12843     12842     12845     12847
     12844     12842     12845     12846     12844     12842     12845     12847
     12845     12847     12849     12850     12845     12847     12849     12851
     12845     12847     12849     12852     12846     12845     12847     12848
     12846     12845     12847     12849     12847     12849     12852     12853
     12847     12849     12852     12854     12847     12849     12852     12855
     12848     12847     12849     12850     12848     12847     12849     12851
     12848     12847     12849     12852     12849     12852     12855     12856
     12849     12852     12855     12857     12849     12852     12855     12858
     12850     12849     12852     12853     12850     12849     12852     12854
     12850     12849     12852     12855     12851     12849     12852     12853
     12851     12849     12852     12854     12851     12849     12852     12855
     12852     12855     12858     12859     12852     12855     12858     12860
     12852     12855     12858     12861     12853     12852     12855     12856
     12853     12852     12855     12857     12853     12852     12855     12858
     12854     12852     12855     12856     12854     12852     12855     12857
     12854     12852     12855     12858     12855     12858     12861     12862
     12855     12858     12861     12863     12855     12858     12861     12864
     12856     12855     12858     12859     12856     12855     12858     12860
     12856     12855     12858     12861     12857     12855     12858     12859
     12857     12855     12858     12860     12857     12855     12858     12861
     12858     12861     12864     12865     12858     12861     12864     12866
     12858     12861     12864     12867     12859     12858     12861     12862
     12859     12858     12861     12863     12859     12858     12861     12864
     12860     12858     12861     12862     12860     12858     12861     12863
     12860     12858     12861     12864     12861     12864     12867     12868
     12861     12864     12867     12869     12861     12864     12867     12870
     12862     12861     12864     12865     12862     12861     12864     12866
     12862     12861     12864     12867     12863     12861     12864     12865
     12863     12861     12864     12866     12863     12861     12864     12867
     12864     12867     12870     12871     12864     12867     12870     12872
     12864     12867     12870     12873     12865     12864     12867     12868
     12865     12864     12867     12869     12865     12864     12867     12870
     12866     12864     12867     12868     12866     12864     12867     12869
     12866     12864     12867     12870     12868     12867     12870     12871
     12868     12867     12870     12872     12868     12867     12870     12873
     12869     12867     12870     12871     12869     12867     12870     12872
     12869     12867     12870     12873     12874     12877     12880     12881
     12874     12877     12880     12882     12874     12877     12880     12883
     12875     12874     12877     12878     12875     12874     12877     12879
     12875     12874     12877     12880     12876     12874     12877     12878
     12876     12874     12877     12879     12876     12874     12877     12880
     12877     12880     12883     12884     12877     12880     12883     12885
     12877     12880     12883     12886     12878     12877     12880     12881
     12878     12877     12880     12882     12878     12877     12880     12883
     12879     12877     12880     12881     12879     12877     12880     12882
     12879     12877     12880     12883     12880     12883     12886     12887
     12880     12883     12886     12888     12880     12883     12886     12889
     12881     12880     12883     12884     12881     12880     12883     12885
     12881     12880     12883     12886     12882     12880     12883     12884
     12882     12880     12883     12885     12882     12880     12883     12886
     12883     12886     12889     12890     12883     12886     12889     12891
     12883     12886     12889     12892     12884     12883     12886     12887
     12884     12883     12886     12888     12884     12883     12886     12889
     12885     12883     12886     12887     12885     12883     12886     12888
     12885     12883     12886     12889     12886     12889     12892     12893
     12886     12889     12892     12894     12887     12886     12889     12890
     12887     12886     12889     12891     12887     12886     12889     12892
     12888     12886     12889     12890     12888     12886     12889     12891
     12888     12886     12889     12892     12889     12892     12894     12895
     12889     12892     12894     12896     12890     12889     12892     12893
     12890     12889     12892     12894     12891     12889     12892     12893
     12891     12889     12892     12894     12892     12894     12896     12897
     12892     12894     12896     12898     12892     12894     12896     12899
     12893     12892     12894     12895     12893     12892     12894     12896
     12894     12896     12899     12900     12894     12896     12899     12901
     12894     12896     12899     12902     12895     12894     12896     12897
     12895     12894     12896     12898     12895     12894     12896     12899
     12896     12899     12902     12903     12896     12899     12902     12904
     12896     12899     12902     12905     12897     12896     12899     12900
     12897     12896     12899     12901     12897     12896     12899     12902
     12898     12896     12899     12900     12898     12896     12899     12901
     12898     12896     12899     12902     12899     12902     12905     12906
     12899     12902     12905     12907     12899     12902     12905     12908
     12900     12899     12902     12903     12900     12899     12902     12904
     12900     12899     12902     12905     12901     12899     12902     12903
     12901     12899     12902     12904     12901     12899     12902     12905
     12902     12905     12908     12909     12902     12905     12908     12910
     12902     12905     12908     12911     12903     12902     12905     12906
     12903     12902     12905     12907     12903     12902     12905     12908
     12904     12902     12905     12906     12904     12902     12905     12907
     12904     12902     12905     12908     12905     12908     12911     12912
     12905     12908     12911     12913     12905     12908     12911     12914
     12906     12905     12908     12909     12906     12905     12908     12910
     12906     12905     12908     12911     12907     12905     12908     12909
     12907     12905     12908     12910     12907     12905     12908     12911
     12908     12911     12914     12915     12908     12911     12914     12916
     12908     12911     12914     12917     12909     12908     12911     12912
     12909     12908     12911     12913     12909     12908     12911     12914
     12910     12908     12911     12912     12910     12908     12911     12913
     12910     12908     12911     12914     12911     12914     12917     12918
     12911     12914     12917     12919     12911     12914     12917     12920
     12912     12911     12914     12915     12912     12911     12914     12916
     12912     12911     12914     12917     12913     12911     12914     12915
     12913     12911     12914     12916     12913     12911     12914     12917
     12915     12914     12917     12918     12915     12914     12917     12919
     12915     12914     12917     12920     12916     12914     12917     12918
     12916     12914     12917     12919     12916     12914     12917     12920
     12921     12922     12937     12938     12921     12922     12937     12939
     12921     12922     12937     12943     12922     12921     12925     12926
     12922     12921     12925     12927     12922     12921     12925     12928
     12922     12921     12929     12930     12922     12921     12929     12931
     12922     12921     12929     12932     12922     12921     12933     12934
     12922     12921     12933     12935     12922     12921     12933     12936
     12922     12937     12943     12940     12923     12922     12921     12925
     12923     12922     12921     12929     12923     12922     12921     12933
     12923     12922     12937     12938     12923     12922     12937     12939
     12923     12922     12937     12943     12924     12922     12921     12925
     12924     12922     12921     12929     12924     12922     12921     12933
     12924     12922     12937     12938     12924     12922     12937     12939
     12924     12922     12937     12943     12925     12921     12922     12937
     12925     12921     12929     12930     12925     12921     12929     12931
     12925     12921     12929     12932     12925     12921     12933     12934
     12925     12921     12933     12935     12925     12921     12933     12936
     12926     12925     12921     12929     12926     12925     12921     12933
     12927     12925     12921     12929     12927     12925     12921     12933
     12928     12925     12921     12929     12928     12925     12921     12933
     12929     12921     12922     12937     12929     12921     12933     12934
     12929     12921     12933     12935     12929     12921     12933     12936
     12930     12929     12921     12933     12931     12929     12921     12933
     12932     12929     12921     12933     12933     12921     12922     12937
     12937     12943     12940     12941     12937     12943     12940     12942
     12937     12943     12940     12944     12938     12937     12943     12940
     12939     12937     12943     12940     12940     12944     12945     12946
     12940     12944     12945     12947     12940     12944     12945     12948
     12941     12940     12944     12945     12942     12940     12944     12945
     12943     12940     12944     12945     12944     12945     12948     12949
     12944     12945     12948     12950     12944     12945     12948     12956
     12945     12948     12950     12951     12945     12948     12956     12957
     12945     12948     12956     12958     12945     12948     12956     12959
     12946     12945     12948     12949     12946     12945     12948     12950
     12946     12945     12948     12956     12947     12945     12948     12949
     12947     12945     12948     12950     12947     12945     12948     12956
     12948     12950     12951     12952     12948     12950     12951     12953
     12948     12956     12959     12960     12949     12948     12950     12951
     12949     12948     12956     12957     12949     12948     12956     12958
     12949     12948     12956     12959     12950     12948     12956     12957
     12950     12948     12956     12958     12950     12948     12956     12959
     12950     12951     12953     12954     12950     12951     12953     12955
     12950     12951     12953     12965     12951     12950     12948     12956
     12951     12953     12965     12966     12951     12953     12965     12967
     12951     12953     12965     12968     12952     12951     12953     12954
     12952     12951     12953     12955     12952     12951     12953     12965
     12953     12965     12968     12969     12953     12965     12968     12970
     12953     12965     12968     12971     12954     12953     12965     12966
     12954     12953     12965     12967     12954     12953     12965     12968
     12955     12953     12965     12966     12955     12953     12965     12967
     12955     12953     12965     12968     12956     12959     12960     12961
     12956     12959     12960     12962     12957     12956     12959     12960
     12958     12956     12959     12960     12959     12960     12962     12963
     12959     12960     12962     12964     12959     12960     12962     13012
     12960     12962     13012     13013     12960     12962     13012     13014
     12960     12962     13012     13015     12961     12960     12962     12963
     12961     12960     12962     12964     12961     12960     12962     13012
     12962     13012     13015     13016     12962     13012     13015     13017
     12962     13012     13015     13018     12963     12962     13012     13013
     12963     12962     13012     13014     12963     12962     13012     13015
     12964     12962     13012     13013     12964     12962     13012     13014
     12964     12962     13012     13015     12965     12968     12971     12972
     12965     12968     12971     12973     12965     12968     12971     12974
     12966     12965     12968     12969     12966     12965     12968     12970
     12966     12965     12968     12971     12967     12965     12968     12969
     12967     12965     12968     12970     12967     12965     12968     12971
     12968     12971     12974     12975     12968     12971     12974     12976
     12968     12971     12974     12977     12969     12968     12971     12972
     12969     12968     12971     12973     12969     12968     12971     12974
     12970     12968     12971     12972     12970     12968     12971     12973
     12970     12968     12971     12974     12971     12974     12977     12978
     12971     12974     12977     12979     12971     12974     12977     12980
     12972     12971     12974     12975     12972     12971     12974     12976
     12972     12971     12974     12977     12973     12971     12974     12975
     12973     12971     12974     12976     12973     12971     12974     12977
     12974     12977     12980     12981     12974     12977     12980     12982
     12974     12977     12980     12983     12975     12974     12977     12978
     12975     12974     12977     12979     12975     12974     12977     12980
     12976     12974     12977     12978     12976     12974     12977     12979
     12976     12974     12977     12980     12977     12980     12983     12984
     12977     12980     12983     12985     12978     12977     12980     12981
     12978     12977     12980     12982     12978     12977     12980     12983
     12979     12977     12980     12981     12979     12977     12980     12982
     12979     12977     12980     12983     12980     12983     12985     12986
     12980     12983     12985     12987     12981     12980     12983     12984
     12981     12980     12983     12985     12982     12980     12983     12984
     12982     12980     12983     12985     12983     12985     12987     12988
     12983     12985     12987     12989     12983     12985     12987     12990
     12984     12983     12985     12986     12984     12983     12985     12987
     12985     12987     12990     12991     12985     12987     12990     12992
     12985     12987     12990     12993     12986     12985     12987     12988
     12986     12985     12987     12989     12986     12985     12987     12990
     12987     12990     12993     12994     12987     12990     12993     12995
     12987     12990     12993     12996     12988     12987     12990     12991
     12988     12987     12990     12992     12988     12987     12990     12993
     12989     12987     12990     12991     12989     12987     12990     12992
     12989     12987     12990     12993     12990     12993     12996     12997
     12990     12993     12996     12998     12990     12993     12996     12999
     12991     12990     12993     12994     12991     12990     12993     12995
     12991     12990     12993     12996     12992     12990     12993     12994
     12992     12990     12993     12995     12992     12990     12993     12996
     12993     12996     12999     13000     12993     12996     12999     13001
     12993     12996     12999     13002     12994     12993     12996     12997
     12994     12993     12996     12998     12994     12993     12996     12999
     12995     12993     12996     12997     12995     12993     12996     12998
     12995     12993     12996     12999     12996     12999     13002     13003
     12996     12999     13002     13004     12996     12999     13002     13005
     12997     12996     12999     13000     12997     12996     12999     13001
     12997     12996     12999     13002     12998     12996     12999     13000
     12998     12996     12999     13001     12998     12996     12999     13002
     12999     13002     13005     13006     12999     13002     13005     13007
     12999     13002     13005     13008     13000     12999     13002     13003
     13000     12999     13002     13004     13000     12999     13002     13005
     13001     12999     13002     13003     13001     12999     13002     13004
     13001     12999     13002     13005     13002     13005     13008     13009
     13002     13005     13008     13010     13002     13005     13008     13011
     13003     13002     13005     13006     13003     13002     13005     13007
     13003     13002     13005     13008     13004     13002     13005     13006
     13004     13002     13005     13007     13004     13002     13005     13008
     13006     13005     13008     13009     13006     13005     13008     13010
     13006     13005     13008     13011     13007     13005     13008     13009
     13007     13005     13008     13010     13007     13005     13008     13011
     13012     13015     13018     13019     13012     13015     13018     13020
     13012     13015     13018     13021     13013     13012     13015     13016
     13013     13012     13015     13017     13013     13012     13015     13018
     13014     13012     13015     13016     13014     13012     13015     13017
     13014     13012     13015     13018     13015     13018     13021     13022
     13015     13018     13021     13023     13015     13018     13021     13024
     13016     13015     13018     13019     13016     13015     13018     13020
     13016     13015     13018     13021     13017     13015     13018     13019
     13017     13015     13018     13020     13017     13015     13018     13021
     13018     13021     13024     13025     13018     13021     13024     13026
     13018     13021     13024     13027     13019     13018     13021     13022
     13019     13018     13021     13023     13019     13018     13021     13024
     13020     13018     13021     13022     13020     13018     13021     13023
     13020     13018     13021     13024     13021     13024     13027     13028
     13021     13024     13027     13029     13021     13024     13027     13030
     13022     13021     13024     13025     13022     13021     13024     13026
     13022     13021     13024     13027     13023     13021     13024     13025
     13023     13021     13024     13026     13023     13021     13024     13027
     13024     13027     13030     13031     13024     13027     13030     13032
     13025     13024     13027     13028     13025     13024     13027     13029
     13025     13024     13027     13030     13026     13024     13027     13028
     13026     13024     13027     13029     13026     13024     13027     13030
     13027     13030     13032     13033     13027     13030     13032     13034
     13028     13027     13030     13031     13028     13027     13030     13032
     13029     13027     13030     13031     13029     13027     13030     13032
     13030     13032     13034     13035     13030     13032     13034     13036
     13030     13032     13034     13037     13031     13030     13032     13033
     13031     13030     13032     13034     13032     13034     13037     13038
     13032     13034     13037     13039     13032     13034     13037     13040
     13033     13032     13034     13035     13033     13032     13034     13036
     13033     13032     13034     13037     13034     13037     13040     13041
     13034     13037     13040     13042     13034     13037     13040     13043
     13035     13034     13037     13038     13035     13034     13037     13039
     13035     13034     13037     13040     13036     13034     13037     13038
     13036     13034     13037     13039     13036     13034     13037     13040
     13037     13040     13043     13044     13037     13040     13043     13045
     13037     13040     13043     13046     13038     13037     13040     13041
     13038     13037     13040     13042     13038     13037     13040     13043
     13039     13037     13040     13041     13039     13037     13040     13042
     13039     13037     13040     13043     13040     13043     13046     13047
     13040     13043     13046     13048     13040     13043     13046     13049
     13041     13040     13043     13044     13041     13040     13043     13045
     13041     13040     13043     13046     13042     13040     13043     13044
     13042     13040     13043     13045     13042     13040     13043     13046
     13043     13046     13049     13050     13043     13046     13049     13051
     13043     13046     13049     13052     13044     13043     13046     13047
     13044     13043     13046     13048     13044     13043     13046     13049
     13045     13043     13046     13047     13045     13043     13046     13048
     13045     13043     13046     13049     13046     13049     13052     13053
     13046     13049     13052     13054     13046     13049     13052     13055
     13047     13046     13049     13050     13047     13046     13049     13051
     13047     13046     13049     13052     13048     13046     13049     13050
     13048     13046     13049     13051     13048     13046     13049     13052
     13049     13052     13055     13056     13049     13052     13055     13057
     13049     13052     13055     13058     13050     13049     13052     13053
     13050     13049     13052     13054     13050     13049     13052     13055
     13051     13049     13052     13053     13051     13049     13052     13054
     13051     13049     13052     13055     13053     13052     13055     13056
     13053     13052     13055     13057     13053     13052     13055     13058
     13054     13052     13055     13056     13054     13052     13055     13057
     13054     13052     13055     13058     13059     13060     13075     13076
     13059     13060     13075     13077     13059     13060     13075     13081
     13060     13059     13063     13064     13060     13059     13063     13065
     13060     13059     13063     13066     13060     13059     13067     13068
     13060     13059     13067     13069     13060     13059     13067     13070
     13060     13059     13071     13072     13060     13059     13071     13073
     13060     13059     13071     13074     13060     13075     13081     13078
     13061     13060     13059     13063     13061     13060     13059     13067
     13061     13060     13059     13071     13061     13060     13075     13076
     13061     13060     13075     13077     13061     13060     13075     13081
     13062     13060     13059     13063     13062     13060     13059     13067
     13062     13060     13059     13071     13062     13060     13075     13076
     13062     13060     13075     13077     13062     13060     13075     13081
     13063     13059     13060     13075     13063     13059     13067     13068
     13063     13059     13067     13069     13063     13059     13067     13070
     13063     13059     13071     13072     13063     13059     13071     13073
     13063     13059     13071     13074     13064     13063     13059     13067
     13064     13063     13059     13071     13065     13063     13059     13067
     13065     13063     13059     13071     13066     13063     13059     13067
     13066     13063     13059     13071     13067     13059     13060     13075
     13067     13059     13071     13072     13067     13059     13071     13073
     13067     13059     13071     13074     13068     13067     13059     13071
     13069     13067     13059     13071     13070     13067     13059     13071
     13071     13059     13060     13075     13075     13081     13078     13079
     13075     13081     13078     13080     13075     13081     13078     13082
     13076     13075     13081     13078     13077     13075     13081     13078
     13078     13082     13083     13084     13078     13082     13083     13085
     13078     13082     13083     13086     13079     13078     13082     13083
     13080     13078     13082     13083     13081     13078     13082     13083
     13082     13083     13086     13087     13082     13083     13086     13088
     13082     13083     13086     13094     13083     13086     13088     13089
     13083     13086     13094     13095     13083     13086     13094     13096
     13083     13086     13094     13097     13084     13083     13086     13087
     13084     13083     13086     13088     13084     13083     13086     13094
     13085     13083     13086     13087     13085     13083     13086     13088
     13085     13083     13086     13094     13086     13088     13089     13090
     13086     13088     13089     13091     13086     13094     13097     13098
     13087     13086     13088     13089     13087     13086     13094     13095
     13087     13086     13094     13096     13087     13086     13094     13097
     13088     13086     13094     13095     13088     13086     13094     13096
     13088     13086     13094     13097     13088     13089     13091     13092
     13088     13089     13091     13093     13088     13089     13091     13103
     13089     13088     13086     13094     13089     13091     13103     13104
     13089     13091     13103     13105     13089     13091     13103     13106
     13090     13089     13091     13092     13090     13089     13091     13093
     13090     13089     13091     13103     13091     13103     13106     13107
     13091     13103     13106     13108     13091     13103     13106     13109
     13092     13091     13103     13104     13092     13091     13103     13105
     13092     13091     13103     13106     13093     13091     13103     13104
     13093     13091     13103     13105     13093     13091     13103     13106
     13094     13097     13098     13099     13094     13097     13098     13100
     13095     13094     13097     13098     13096     13094     13097     13098
     13097     13098     13100     13101     13097     13098     13100     13102
     13097     13098     13100     13150     13098     13100     13150     13151
     13098     13100     13150     13152     13098     13100     13150     13153
     13099     13098     13100     13101     13099     13098     13100     13102
     13099     13098     13100     13150     13100     13150     13153     13154
     13100     13150     13153     13155     13100     13150     13153     13156
     13101     13100     13150     13151     13101     13100     13150     13152
     13101     13100     13150     13153     13102     13100     13150     13151
     13102     13100     13150     13152     13102     13100     13150     13153
     13103     13106     13109     13110     13103     13106     13109     13111
     13103     13106     13109     13112     13104     13103     13106     13107
     13104     13103     13106     13108     13104     13103     13106     13109
     13105     13103     13106     13107     13105     13103     13106     13108
     13105     13103     13106     13109     13106     13109     13112     13113
     13106     13109     13112     13114     13106     13109     13112     13115
     13107     13106     13109     13110     13107     13106     13109     13111
     13107     13106     13109     13112     13108     13106     13109     13110
     13108     13106     13109     13111     13108     13106     13109     13112
     13109     13112     13115     13116     13109     13112     13115     13117
     13109     13112     13115     13118     13110     13109     13112     13113
     13110     13109     13112     13114     13110     13109     13112     13115
     13111     13109     13112     13113     13111     13109     13112     13114
     13111     13109     13112     13115     13112     13115     13118     13119
     13112     13115     13118     13120     13112     13115     13118     13121
     13113     13112     13115     13116     13113     13112     13115     13117
     13113     13112     13115     13118     13114     13112     13115     13116
     13114     13112     13115     13117     13114     13112     13115     13118
     13115     13118     13121     13122     13115     13118     13121     13123
     13116     13115     13118     13119     13116     13115     13118     13120
     13116     13115     13118     13121     13117     13115     13118     13119
     13117     13115     13118     13120     13117     13115     13118     13121
     13118     13121     13123     13124     13118     13121     13123     13125
     13119     13118     13121     13122     13119     13118     13121     13123
     13120     13118     13121     13122     13120     13118     13121     13123
     13121     13123     13125     13126     13121     13123     13125     13127
     13121     13123     13125     13128     13122     13121     13123     13124
     13122     13121     13123     13125     13123     13125     13128     13129
     13123     13125     13128     13130     13123     13125     13128     13131
     13124     13123     13125     13126     13124     13123     13125     13127
     13124     13123     13125     13128     13125     13128     13131     13132
     13125     13128     13131     13133     13125     13128     13131     13134
     13126     13125     13128     13129     13126     13125     13128     13130
     13126     13125     13128     13131     13127     13125     13128     13129
     13127     13125     13128     13130     13127     13125     13128     13131
     13128     13131     13134     13135     13128     13131     13134     13136
     13128     13131     13134     13137     13129     13128     13131     13132
     13129     13128     13131     13133     13129     13128     13131     13134
     13130     13128     13131     13132     13130     13128     13131     13133
     13130     13128     13131     13134     13131     13134     13137     13138
     13131     13134     13137     13139     13131     13134     13137     13140
     13132     13131     13134     13135     13132     13131     13134     13136
     13132     13131     13134     13137     13133     13131     13134     13135
     13133     13131     13134     13136     13133     13131     13134     13137
     13134     13137     13140     13141     13134     13137     13140     13142
     13134     13137     13140     13143     13135     13134     13137     13138
     13135     13134     13137     13139     13135     13134     13137     13140
     13136     13134     13137     13138     13136     13134     13137     13139
     13136     13134     13137     13140     13137     13140     13143     13144
     13137     13140     13143     13145     13137     13140     13143     13146
     13138     13137     13140     13141     13138     13137     13140     13142
     13138     13137     13140     13143     13139     13137     13140     13141
     13139     13137     13140     13142     13139     13137     13140     13143
     13140     13143     13146     13147     13140     13143     13146     13148
     13140     13143     13146     13149     13141     13140     13143     13144
     13141     13140     13143     13145     13141     13140     13143     13146
     13142     13140     13143     13144     13142     13140     13143     13145
     13142     13140     13143     13146     13144     13143     13146     13147
     13144     13143     13146     13148     13144     13143     13146     13149
     13145     13143     13146     13147     13145     13143     13146     13148
     13145     13143     13146     13149     13150     13153     13156     13157
     13150     13153     13156     13158     13150     13153     13156     13159
     13151     13150     13153     13154     13151     13150     13153     13155
     13151     13150     13153     13156     13152     13150     13153     13154
     13152     13150     13153     13155     13152     13150     13153     13156
     13153     13156     13159     13160     13153     13156     13159     13161
     13153     13156     13159     13162     13154     13153     13156     13157
     13154     13153     13156     13158     13154     13153     13156     13159
     13155     13153     13156     13157     13155     13153     13156     13158
     13155     13153     13156     13159     13156     13159     13162     13163
     13156     13159     13162     13164     13156     13159     13162     13165
     13157     13156     13159     13160     13157     13156     13159     13161
     13157     13156     13159     13162     13158     13156     13159     13160
     13158     13156     13159     13161     13158     13156     13159     13162
     13159     13162     13165     13166     13159     13162     13165     13167
     13159     13162     13165     13168     13160     13159     13162     13163
     13160     13159     13162     13164     13160     13159     13162     13165
     13161     13159     13162     13163     13161     13159     13162     13164
     13161     13159     13162     13165     13162     13165     13168     13169
     13162     13165     13168     13170     13163     13162     13165     13166
     13163     13162     13165     13167     13163     13162     13165     13168
     13164     13162     13165     13166     13164     13162     13165     13167
     13164     13162     13165     13168     13165     13168     13170     13171
     13165     13168     13170     13172     13166     13165     13168     13169
     13166     13165     13168     13170     13167     13165     13168     13169
     13167     13165     13168     13170     13168     13170     13172     13173
     13168     13170     13172     13174     13168     13170     13172     13175
     13169     13168     13170     13171     13169     13168     13170     13172
     13170     13172     13175     13176     13170     13172     13175     13177
     13170     13172     13175     13178     13171     13170     13172     13173
     13171     13170     13172     13174     13171     13170     13172     13175
     13172     13175     13178     13179     13172     13175     13178     13180
     13172     13175     13178     13181     13173     13172     13175     13176
     13173     13172     13175     13177     13173     13172     13175     13178
     13174     13172     13175     13176     13174     13172     13175     13177
     13174     13172     13175     13178     13175     13178     13181     13182
     13175     13178     13181     13183     13175     13178     13181     13184
     13176     13175     13178     13179     13176     13175     13178     13180
     13176     13175     13178     13181     13177     13175     13178     13179
     13177     13175     13178     13180     13177     13175     13178     13181
     13178     13181     13184     13185     13178     13181     13184     13186
     13178     13181     13184     13187     13179     13178     13181     13182
     13179     13178     13181     13183     13179     13178     13181     13184
     13180     13178     13181     13182     13180     13178     13181     13183
     13180     13178     13181     13184     13181     13184     13187     13188
     13181     13184     13187     13189     13181     13184     13187     13190
     13182     13181     13184     13185     13182     13181     13184     13186
     13182     13181     13184     13187     13183     13181     13184     13185
     13183     13181     13184     13186     13183     13181     13184     13187
     13184     13187     13190     13191     13184     13187     13190     13192
     13184     13187     13190     13193     13185     13184     13187     13188
     13185     13184     13187     13189     13185     13184     13187     13190
     13186     13184     13187     13188     13186     13184     13187     13189
     13186     13184     13187     13190     13187     13190     13193     13194
     13187     13190     13193     13195     13187     13190     13193     13196
     13188     13187     13190     13191     13188     13187     13190     13192
     13188     13187     13190     13193     13189     13187     13190     13191
     13189     13187     13190     13192     13189     13187     13190     13193
     13191     13190     13193     13194     13191     13190     13193     13195
     13191     13190     13193     13196     13192     13190     13193     13194
     13192     13190     13193     13195     13192     13190     13193     13196
     13197     13198     13213     13214     13197     13198     13213     13215
     13197     13198     13213     13219     13198     13197     13201     13202
     13198     13197     13201     13203     13198     13197     13201     13204
     13198     13197     13205     13206     13198     13197     13205     13207
     13198     13197     13205     13208     13198     13197     13209     13210
     13198     13197     13209     13211     13198     13197     13209     13212
     13198     13213     13219     13216     13199     13198     13197     13201
     13199     13198     13197     13205     13199     13198     13197     13209
     13199     13198     13213     13214     13199     13198     13213     13215
     13199     13198     13213     13219     13200     13198     13197     13201
     13200     13198     13197     13205     13200     13198     13197     13209
     13200     13198     13213     13214     13200     13198     13213     13215
     13200     13198     13213     13219     13201     13197     13198     13213
     13201     13197     13205     13206     13201     13197     13205     13207
     13201     13197     13205     13208     13201     13197     13209     13210
     13201     13197     13209     13211     13201     13197     13209     13212
     13202     13201     13197     13205     13202     13201     13197     13209
     13203     13201     13197     13205     13203     13201     13197     13209
     13204     13201     13197     13205     13204     13201     13197     13209
     13205     13197     13198     13213     13205     13197     13209     13210
     13205     13197     13209     13211     13205     13197     13209     13212
     13206     13205     13197     13209     13207     13205     13197     13209
     13208     13205     13197     13209     13209     13197     13198     13213
     13213     13219     13216     13217     13213     13219     13216     13218
     13213     13219     13216     13220     13214     13213     13219     13216
     13215     13213     13219     13216     13216     13220     13221     13222
     13216     13220     13221     13223     13216     13220     13221     13224
     13217     13216     13220     13221     13218     13216     13220     13221
     13219     13216     13220     13221     13220     13221     13224     13225
     13220     13221     13224     13226     13220     13221     13224     13232
     13221     13224     13226     13227     13221     13224     13232     13233
     13221     13224     13232     13234     13221     13224     13232     13235
     13222     13221     13224     13225     13222     13221     13224     13226
     13222     13221     13224     13232     13223     13221     13224     13225
     13223     13221     13224     13226     13223     13221     13224     13232
     13224     13226     13227     13228     13224     13226     13227     13229
     13224     13232     13235     13236     13225     13224     13226     13227
     13225     13224     13232     13233     13225     13224     13232     13234
     13225     13224     13232     13235     13226     13224     13232     13233
     13226     13224     13232     13234     13226     13224     13232     13235
     13226     13227     13229     13230     13226     13227     13229     13231
     13226     13227     13229     13241     13227     13226     13224     13232
     13227     13229     13241     13242     13227     13229     13241     13243
     13227     13229     13241     13244     13228     13227     13229     13230
     13228     13227     13229     13231     13228     13227     13229     13241
     13229     13241     13244     13245     13229     13241     13244     13246
     13229     13241     13244     13247     13230     13229     13241     13242
     13230     13229     13241     13243     13230     13229     13241     13244
     13231     13229     13241     13242     13231     13229     13241     13243
     13231     13229     13241     13244     13232     13235     13236     13237
     13232     13235     13236     13238     13233     13232     13235     13236
     13234     13232     13235     13236     13235     13236     13238     13239
     13235     13236     13238     13240     13235     13236     13238     13288
     13236     13238     13288     13289     13236     13238     13288     13290
     13236     13238     13288     13291     13237     13236     13238     13239
     13237     13236     13238     13240     13237     13236     13238     13288
     13238     13288     13291     13292     13238     13288     13291     13293
     13238     13288     13291     13294     13239     13238     13288     13289
     13239     13238     13288     13290     13239     13238     13288     13291
     13240     13238     13288     13289     13240     13238     13288     13290
     13240     13238     13288     13291     13241     13244     13247     13248
     13241     13244     13247     13249     13241     13244     13247     13250
     13242     13241     13244     13245     13242     13241     13244     13246
     13242     13241     13244     13247     13243     13241     13244     13245
     13243     13241     13244     13246     13243     13241     13244     13247
     13244     13247     13250     13251     13244     13247     13250     13252
     13244     13247     13250     13253     13245     13244     13247     13248
     13245     13244     13247     13249     13245     13244     13247     13250
     13246     13244     13247     13248     13246     13244     13247     13249
     13246     13244     13247     13250     13247     13250     13253     13254
     13247     13250     13253     13255     13247     13250     13253     13256
     13248     13247     13250     13251     13248     13247     13250     13252
     13248     13247     13250     13253     13249     13247     13250     13251
     13249     13247     13250     13252     13249     13247     13250     13253
     13250     13253     13256     13257     13250     13253     13256     13258
     13250     13253     13256     13259     13251     13250     13253     13254
     13251     13250     13253     13255     13251     13250     13253     13256
     13252     13250     13253     13254     13252     13250     13253     13255
     13252     13250     13253     13256     13253     13256     13259     13260
     13253     13256     13259     13261     13254     13253     13256     13257
     13254     13253     13256     13258     13254     13253     13256     13259
     13255     13253     13256     13257     13255     13253     13256     13258
     13255     13253     13256     13259     13256     13259     13261     13262
     13256     13259     13261     13263     13257     13256     13259     13260
     13257     13256     13259     13261     13258     13256     13259     13260
     13258     13256     13259     13261     13259     13261     13263     13264
     13259     13261     13263     13265     13259     13261     13263     13266
     13260     13259     13261     13262     13260     13259     13261     13263
     13261     13263     13266     13267     13261     13263     13266     13268
     13261     13263     13266     13269     13262     13261     13263     13264
     13262     13261     13263     13265     13262     13261     13263     13266
     13263     13266     13269     13270     13263     13266     13269     13271
     13263     13266     13269     13272     13264     13263     13266     13267
     13264     13263     13266     13268     13264     13263     13266     13269
     13265     13263     13266     13267     13265     13263     13266     13268
     13265     13263     13266     13269     13266     13269     13272     13273
     13266     13269     13272     13274     13266     13269     13272     13275
     13267     13266     13269     13270     13267     13266     13269     13271
     13267     13266     13269     13272     13268     13266     13269     13270
     13268     13266     13269     13271     13268     13266     13269     13272
     13269     13272     13275     13276     13269     13272     13275     13277
     13269     13272     13275     13278     13270     13269     13272     13273
     13270     13269     13272     13274     13270     13269     13272     13275
     13271     13269     13272     13273     13271     13269     13272     13274
     13271     13269     13272     13275     13272     13275     13278     13279
     13272     13275     13278     13280     13272     13275     13278     13281
     13273     13272     13275     13276     13273     13272     13275     13277
     13273     13272     13275     13278     13274     13272     13275     13276
     13274     13272     13275     13277     13274     13272     13275     13278
     13275     13278     13281     13282     13275     13278     13281     13283
     13275     13278     13281     13284     13276     13275     13278     13279
     13276     13275     13278     13280     13276     13275     13278     13281
     13277     13275     13278     13279     13277     13275     13278     13280
     13277     13275     13278     13281     13278     13281     13284     13285
     13278     13281     13284     13286     13278     13281     13284     13287
     13279     13278     13281     13282     13279     13278     13281     13283
     13279     13278     13281     13284     13280     13278     13281     13282
     13280     13278     13281     13283     13280     13278     13281     13284
     13282     13281     13284     13285     13282     13281     13284     13286
     13282     13281     13284     13287     13283     13281     13284     13285
     13283     13281     13284     13286     13283     13281     13284     13287
     13288     13291     13294     13295     13288     13291     13294     13296
     13288     13291     13294     13297     13289     13288     13291     13292
     13289     13288     13291     13293     13289     13288     13291     13294
     13290     13288     13291     13292     13290     13288     13291     13293
     13290     13288     13291     13294     13291     13294     13297     13298
     13291     13294     13297     13299     13291     13294     13297     13300
     13292     13291     13294     13295     13292     13291     13294     13296
     13292     13291     13294     13297     13293     13291     13294     13295
     13293     13291     13294     13296     13293     13291     13294     13297
     13294     13297     13300     13301     13294     13297     13300     13302
     13294     13297     13300     13303     13295     13294     13297     13298
     13295     13294     13297     13299     13295     13294     13297     13300
     13296     13294     13297     13298     13296     13294     13297     13299
     13296     13294     13297     13300     13297     13300     13303     13304
     13297     13300     13303     13305     13297     13300     13303     13306
     13298     13297     13300     13301     13298     13297     13300     13302
     13298     13297     13300     13303     13299     13297     13300     13301
     13299     13297     13300     13302     13299     13297     13300     13303
     13300     13303     13306     13307     13300     13303     13306     13308
     13301     13300     13303     13304     13301     13300     13303     13305
     13301     13300     13303     13306     13302     13300     13303     13304
     13302     13300     13303     13305     13302     13300     13303     13306
     13303     13306     13308     13309     13303     13306     13308     13310
     13304     13303     13306     13307     13304     13303     13306     13308
     13305     13303     13306     13307     13305     13303     13306     13308
     13306     13308     13310     13311     13306     13308     13310     13312
     13306     13308     13310     13313     13307     13306     13308     13309
     13307     13306     13308     13310     13308     13310     13313     13314
     13308     13310     13313     13315     13308     13310     13313     13316
     13309     13308     13310     13311     13309     13308     13310     13312
     13309     13308     13310     13313     13310     13313     13316     13317
     13310     13313     13316     13318     13310     13313     13316     13319
     13311     13310     13313     13314     13311     13310     13313     13315
     13311     13310     13313     13316     13312     13310     13313     13314
     13312     13310     13313     13315     13312     13310     13313     13316
     13313     13316     13319     13320     13313     13316     13319     13321
     13313     13316     13319     13322     13314     13313     13316     13317
     13314     13313     13316     13318     13314     13313     13316     13319
     13315     13313     13316     13317     13315     13313     13316     13318
     13315     13313     13316     13319     13316     13319     13322     13323
     13316     13319     13322     13324     13316     13319     13322     13325
     13317     13316     13319     13320     13317     13316     13319     13321
     13317     13316     13319     13322     13318     13316     13319     13320
     13318     13316     13319     13321     13318     13316     13319     13322
     13319     13322     13325     13326     13319     13322     13325     13327
     13319     13322     13325     13328     13320     13319     13322     13323
     13320     13319     13322     13324     13320     13319     13322     13325
     13321     13319     13322     13323     13321     13319     13322     13324
     13321     13319     13322     13325     13322     13325     13328     13329
     13322     13325     13328     13330     13322     13325     13328     13331
     13323     13322     13325     13326     13323     13322     13325     13327
     13323     13322     13325     13328     13324     13322     13325     13326
     13324     13322     13325     13327     13324     13322     13325     13328
     13325     13328     13331     13332     13325     13328     13331     13333
     13325     13328     13331     13334     13326     13325     13328     13329
     13326     13325     13328     13330     13326     13325     13328     13331
     13327     13325     13328     13329     13327     13325     13328     13330
     13327     13325     13328     13331     13329     13328     13331     13332
     13329     13328     13331     13333     13329     13328     13331     13334
     13330     13328     13331     13332     13330     13328     13331     13333
     13330     13328     13331     13334     13335     13336     13351     13352
     13335     13336     13351     13353     13335     13336     13351     13357
     13336     13335     13339     13340     13336     13335     13339     13341
     13336     13335     13339     13342     13336     13335     13343     13344
     13336     13335     13343     13345     13336     13335     13343     13346
     13336     13335     13347     13348     13336     13335     13347     13349
     13336     13335     13347     13350     13336     13351     13357     13354
     13337     13336     13335     13339     13337     13336     13335     13343
     13337     13336     13335     13347     13337     13336     13351     13352
     13337     13336     13351     13353     13337     13336     13351     13357
     13338     13336     13335     13339     13338     13336     13335     13343
     13338     13336     13335     13347     13338     13336     13351     13352
     13338     13336     13351     13353     13338     13336     13351     13357
     13339     13335     13336     13351     13339     13335     13343     13344
     13339     13335     13343     13345     13339     13335     13343     13346
     13339     13335     13347     13348     13339     13335     13347     13349
     13339     13335     13347     13350     13340     13339     13335     13343
     13340     13339     13335     13347     13341     13339     13335     13343
     13341     13339     13335     13347     13342     13339     13335     13343
     13342     13339     13335     13347     13343     13335     13336     13351
     13343     13335     13347     13348     13343     13335     13347     13349
     13343     13335     13347     13350     13344     13343     13335     13347
     13345     13343     13335     13347     13346     13343     13335     13347
     13347     13335     13336     13351     13351     13357     13354     13355
     13351     13357     13354     13356     13351     13357     13354     13358
     13352     13351     13357     13354     13353     13351     13357     13354
     13354     13358     13359     13360     13354     13358     13359     13361
     13354     13358     13359     13362     13355     13354     13358     13359
     13356     13354     13358     13359     13357     13354     13358     13359
     13358     13359     13362     13363     13358     13359     13362     13364
     13358     13359     13362     13370     13359     13362     13364     13365
     13359     13362     13370     13371     13359     13362     13370     13372
     13359     13362     13370     13373     13360     13359     13362     13363
     13360     13359     13362     13364     13360     13359     13362     13370
     13361     13359     13362     13363     13361     13359     13362     13364
     13361     13359     13362     13370     13362     13364     13365     13366
     13362     13364     13365     13367     13362     13370     13373     13374
     13363     13362     13364     13365     13363     13362     13370     13371
     13363     13362     13370     13372     13363     13362     13370     13373
     13364     13362     13370     13371     13364     13362     13370     13372
     13364     13362     13370     13373     13364     13365     13367     13368
     13364     13365     13367     13369     13364     13365     13367     13379
     13365     13364     13362     13370     13365     13367     13379     13380
     13365     13367     13379     13381     13365     13367     13379     13382
     13366     13365     13367     13368     13366     13365     13367     13369
     13366     13365     13367     13379     13367     13379     13382     13383
     13367     13379     13382     13384     13367     13379     13382     13385
     13368     13367     13379     13380     13368     13367     13379     13381
     13368     13367     13379     13382     13369     13367     13379     13380
     13369     13367     13379     13381     13369     13367     13379     13382
     13370     13373     13374     13375     13370     13373     13374     13376
     13371     13370     13373     13374     13372     13370     13373     13374
     13373     13374     13376     13377     13373     13374     13376     13378
     13373     13374     13376     13426     13374     13376     13426     13427
     13374     13376     13426     13428     13374     13376     13426     13429
     13375     13374     13376     13377     13375     13374     13376     13378
     13375     13374     13376     13426     13376     13426     13429     13430
     13376     13426     13429     13431     13376     13426     13429     13432
     13377     13376     13426     13427     13377     13376     13426     13428
     13377     13376     13426     13429     13378     13376     13426     13427
     13378     13376     13426     13428     13378     13376     13426     13429
     13379     13382     13385     13386     13379     13382     13385     13387
     13379     13382     13385     13388     13380     13379     13382     13383
     13380     13379     13382     13384     13380     13379     13382     13385
     13381     13379     13382     13383     13381     13379     13382     13384
     13381     13379     13382     13385     13382     13385     13388     13389
     13382     13385     13388     13390     13382     13385     13388     13391
     13383     13382     13385     13386     13383     13382     13385     13387
     13383     13382     13385     13388     13384     13382     13385     13386
     13384     13382     13385     13387     13384     13382     13385     13388
     13385     13388     13391     13392     13385     13388     13391     13393
     13385     13388     13391     13394     13386     13385     13388     13389
     13386     13385     13388     13390     13386     13385     13388     13391
     13387     13385     13388     13389     13387     13385     13388     13390
     13387     13385     13388     13391     13388     13391     13394     13395
     13388     13391     13394     13396     13388     13391     13394     13397
     13389     13388     13391     13392     13389     13388     13391     13393
     13389     13388     13391     13394     13390     13388     13391     13392
     13390     13388     13391     13393     13390     13388     13391     13394
     13391     13394     13397     13398     13391     13394     13397     13399
     13392     13391     13394     13395     13392     13391     13394     13396
     13392     13391     13394     13397     13393     13391     13394     13395
     13393     13391     13394     13396     13393     13391     13394     13397
     13394     13397     13399     13400     13394     13397     13399     13401
     13395     13394     13397     13398     13395     13394     13397     13399
     13396     13394     13397     13398     13396     13394     13397     13399
     13397     13399     13401     13402     13397     13399     13401     13403
     13397     13399     13401     13404     13398     13397     13399     13400
     13398     13397     13399     13401     13399     13401     13404     13405
     13399     13401     13404     13406     13399     13401     13404     13407
     13400     13399     13401     13402     13400     13399     13401     13403
     13400     13399     13401     13404     13401     13404     13407     13408
     13401     13404     13407     13409     13401     13404     13407     13410
     13402     13401     13404     13405     13402     13401     13404     13406
     13402     13401     13404     13407     13403     13401     13404     13405
     13403     13401     13404     13406     13403     13401     13404     13407
     13404     13407     13410     13411     13404     13407     13410     13412
     13404     13407     13410     13413     13405     13404     13407     13408
     13405     13404     13407     13409     13405     13404     13407     13410
     13406     13404     13407     13408     13406     13404     13407     13409
     13406     13404     13407     13410     13407     13410     13413     13414
     13407     13410     13413     13415     13407     13410     13413     13416
     13408     13407     13410     13411     13408     13407     13410     13412
     13408     13407     13410     13413     13409     13407     13410     13411
     13409     13407     13410     13412     13409     13407     13410     13413
     13410     13413     13416     13417     13410     13413     13416     13418
     13410     13413     13416     13419     13411     13410     13413     13414
     13411     13410     13413     13415     13411     13410     13413     13416
     13412     13410     13413     13414     13412     13410     13413     13415
     13412     13410     13413     13416     13413     13416     13419     13420
     13413     13416     13419     13421     13413     13416     13419     13422
     13414     13413     13416     13417     13414     13413     13416     13418
     13414     13413     13416     13419     13415     13413     13416     13417
     13415     13413     13416     13418     13415     13413     13416     13419
     13416     13419     13422     13423     13416     13419     13422     13424
     13416     13419     13422     13425     13417     13416     13419     13420
     13417     13416     13419     13421     13417     13416     13419     13422
     13418     13416     13419     13420     13418     13416     13419     13421
     13418     13416     13419     13422     13420     13419     13422     13423
     13420     13419     13422     13424     13420     13419     13422     13425
     13421     13419     13422     13423     13421     13419     13422     13424
     13421     13419     13422     13425     13426     13429     13432     13433
     13426     13429     13432     13434     13426     13429     13432     13435
     13427     13426     13429     13430     13427     13426     13429     13431
     13427     13426     13429     13432     13428     13426     13429     13430
     13428     13426     13429     13431     13428     13426     13429     13432
     13429     13432     13435     13436     13429     13432     13435     13437
     13429     13432     13435     13438     13430     13429     13432     13433
     13430     13429     13432     13434     13430     13429     13432     13435
     13431     13429     13432     13433     13431     13429     13432     13434
     13431     13429     13432     13435     13432     13435     13438     13439
     13432     13435     13438     13440     13432     13435     13438     13441
     13433     13432     13435     13436     13433     13432     13435     13437
     13433     13432     13435     13438     13434     13432     13435     13436
     13434     13432     13435     13437     13434     13432     13435     13438
     13435     13438     13441     13442     13435     13438     13441     13443
     13435     13438     13441     13444     13436     13435     13438     13439
     13436     13435     13438     13440     13436     13435     13438     13441
     13437     13435     13438     13439     13437     13435     13438     13440
     13437     13435     13438     13441     13438     13441     13444     13445
     13438     13441     13444     13446     13439     13438     13441     13442
     13439     13438     13441     13443     13439     13438     13441     13444
     13440     13438     13441     13442     13440     13438     13441     13443
     13440     13438     13441     13444     13441     13444     13446     13447
     13441     13444     13446     13448     13442     13441     13444     13445
     13442     13441     13444     13446     13443     13441     13444     13445
     13443     13441     13444     13446     13444     13446     13448     13449
     13444     13446     13448     13450     13444     13446     13448     13451
     13445     13444     13446     13447     13445     13444     13446     13448
     13446     13448     13451     13452     13446     13448     13451     13453
     13446     13448     13451     13454     13447     13446     13448     13449
     13447     13446     13448     13450     13447     13446     13448     13451
     13448     13451     13454     13455     13448     13451     13454     13456
     13448     13451     13454     13457     13449     13448     13451     13452
     13449     13448     13451     13453     13449     13448     13451     13454
     13450     13448     13451     13452     13450     13448     13451     13453
     13450     13448     13451     13454     13451     13454     13457     13458
     13451     13454     13457     13459     13451     13454     13457     13460
     13452     13451     13454     13455     13452     13451     13454     13456
     13452     13451     13454     13457     13453     13451     13454     13455
     13453     13451     13454     13456     13453     13451     13454     13457
     13454     13457     13460     13461     13454     13457     13460     13462
     13454     13457     13460     13463     13455     13454     13457     13458
     13455     13454     13457     13459     13455     13454     13457     13460
     13456     13454     13457     13458     13456     13454     13457     13459
     13456     13454     13457     13460     13457     13460     13463     13464
     13457     13460     13463     13465     13457     13460     13463     13466
     13458     13457     13460     13461     13458     13457     13460     13462
     13458     13457     13460     13463     13459     13457     13460     13461
     13459     13457     13460     13462     13459     13457     13460     13463
     13460     13463     13466     13467     13460     13463     13466     13468
     13460     13463     13466     13469     13461     13460     13463     13464
     13461     13460     13463     13465     13461     13460     13463     13466
     13462     13460     13463     13464     13462     13460     13463     13465
     13462     13460     13463     13466     13463     13466     13469     13470
     13463     13466     13469     13471     13463     13466     13469     13472
     13464     13463     13466     13467     13464     13463     13466     13468
     13464     13463     13466     13469     13465     13463     13466     13467
     13465     13463     13466     13468     13465     13463     13466     13469
     13467     13466     13469     13470     13467     13466     13469     13471
     13467     13466     13469     13472     13468     13466     13469     13470
     13468     13466     13469     13471     13468     13466     13469     13472
     13473     13474     13489     13490     13473     13474     13489     13491
     13473     13474     13489     13495     13474     13473     13477     13478
     13474     13473     13477     13479     13474     13473     13477     13480
     13474     13473     13481     13482     13474     13473     13481     13483
     13474     13473     13481     13484     13474     13473     13485     13486
     13474     13473     13485     13487     13474     13473     13485     13488
     13474     13489     13495     13492     13475     13474     13473     13477
     13475     13474     13473     13481     13475     13474     13473     13485
     13475     13474     13489     13490     13475     13474     13489     13491
     13475     13474     13489     13495     13476     13474     13473     13477
     13476     13474     13473     13481     13476     13474     13473     13485
     13476     13474     13489     13490     13476     13474     13489     13491
     13476     13474     13489     13495     13477     13473     13474     13489
     13477     13473     13481     13482     13477     13473     13481     13483
     13477     13473     13481     13484     13477     13473     13485     13486
     13477     13473     13485     13487     13477     13473     13485     13488
     13478     13477     13473     13481     13478     13477     13473     13485
     13479     13477     13473     13481     13479     13477     13473     13485
     13480     13477     13473     13481     13480     13477     13473     13485
     13481     13473     13474     13489     13481     13473     13485     13486
     13481     13473     13485     13487     13481     13473     13485     13488
     13482     13481     13473     13485     13483     13481     13473     13485
     13484     13481     13473     13485     13485     13473     13474     13489
     13489     13495     13492     13493     13489     13495     13492     13494
     13489     13495     13492     13496     13490     13489     13495     13492
     13491     13489     13495     13492     13492     13496     13497     13498
     13492     13496     13497     13499     13492     13496     13497     13500
     13493     13492     13496     13497     13494     13492     13496     13497
     13495     13492     13496     13497     13496     13497     13500     13501
     13496     13497     13500     13502     13496     13497     13500     13508
     13497     13500     13502     13503     13497     13500     13508     13509
     13497     13500     13508     13510     13497     13500     13508     13511
     13498     13497     13500     13501     13498     13497     13500     13502
     13498     13497     13500     13508     13499     13497     13500     13501
     13499     13497     13500     13502     13499     13497     13500     13508
     13500     13502     13503     13504     13500     13502     13503     13505
     13500     13508     13511     13512     13501     13500     13502     13503
     13501     13500     13508     13509     13501     13500     13508     13510
     13501     13500     13508     13511     13502     13500     13508     13509
     13502     13500     13508     13510     13502     13500     13508     13511
     13502     13503     13505     13506     13502     13503     13505     13507
     13502     13503     13505     13517     13503     13502     13500     13508
     13503     13505     13517     13518     13503     13505     13517     13519
     13503     13505     13517     13520     13504     13503     13505     13506
     13504     13503     13505     13507     13504     13503     13505     13517
     13505     13517     13520     13521     13505     13517     13520     13522
     13505     13517     13520     13523     13506     13505     13517     13518
     13506     13505     13517     13519     13506     13505     13517     13520
     13507     13505     13517     13518     13507     13505     13517     13519
     13507     13505     13517     13520     13508     13511     13512     13513
     13508     13511     13512     13514     13509     13508     13511     13512
     13510     13508     13511     13512     13511     13512     13514     13515
     13511     13512     13514     13516     13511     13512     13514     13564
     13512     13514     13564     13565     13512     13514     13564     13566
     13512     13514     13564     13567     13513     13512     13514     13515
     13513     13512     13514     13516     13513     13512     13514     13564
     13514     13564     13567     13568     13514     13564     13567     13569
     13514     13564     13567     13570     13515     13514     13564     13565
     13515     13514     13564     13566     13515     13514     13564     13567
     13516     13514     13564     13565     13516     13514     13564     13566
     13516     13514     13564     13567     13517     13520     13523     13524
     13517     13520     13523     13525     13517     13520     13523     13526
     13518     13517     13520     13521     13518     13517     13520     13522
     13518     13517     13520     13523     13519     13517     13520     13521
     13519     13517     13520     13522     13519     13517     13520     13523
     13520     13523     13526     13527     13520     13523     13526     13528
     13520     13523     13526     13529     13521     13520     13523     13524
     13521     13520     13523     13525     13521     13520     13523     13526
     13522     13520     13523     13524     13522     13520     13523     13525
     13522     13520     13523     13526     13523     13526     13529     13530
     13523     13526     13529     13531     13523     13526     13529     13532
     13524     13523     13526     13527     13524     13523     13526     13528
     13524     13523     13526     13529     13525     13523     13526     13527
     13525     13523     13526     13528     13525     13523     13526     13529
     13526     13529     13532     13533     13526     13529     13532     13534
     13526     13529     13532     13535     13527     13526     13529     13530
     13527     13526     13529     13531     13527     13526     13529     13532
     13528     13526     13529     13530     13528     13526     13529     13531
     13528     13526     13529     13532     13529     13532     13535     13536
     13529     13532     13535     13537     13530     13529     13532     13533
     13530     13529     13532     13534     13530     13529     13532     13535
     13531     13529     13532     13533     13531     13529     13532     13534
     13531     13529     13532     13535     13532     13535     13537     13538
     13532     13535     13537     13539     13533     13532     13535     13536
     13533     13532     13535     13537     13534     13532     13535     13536
     13534     13532     13535     13537     13535     13537     13539     13540
     13535     13537     13539     13541     13535     13537     13539     13542
     13536     13535     13537     13538     13536     13535     13537     13539
     13537     13539     13542     13543     13537     13539     13542     13544
     13537     13539     13542     13545     13538     13537     13539     13540
     13538     13537     13539     13541     13538     13537     13539     13542
     13539     13542     13545     13546     13539     13542     13545     13547
     13539     13542     13545     13548     13540     13539     13542     13543
     13540     13539     13542     13544     13540     13539     13542     13545
     13541     13539     13542     13543     13541     13539     13542     13544
     13541     13539     13542     13545     13542     13545     13548     13549
     13542     13545     13548     13550     13542     13545     13548     13551
     13543     13542     13545     13546     13543     13542     13545     13547
     13543     13542     13545     13548     13544     13542     13545     13546
     13544     13542     13545     13547     13544     13542     13545     13548
     13545     13548     13551     13552     13545     13548     13551     13553
     13545     13548     13551     13554     13546     13545     13548     13549
     13546     13545     13548     13550     13546     13545     13548     13551
     13547     13545     13548     13549     13547     13545     13548     13550
     13547     13545     13548     13551     13548     13551     13554     13555
     13548     13551     13554     13556     13548     13551     13554     13557
     13549     13548     13551     13552     13549     13548     13551     13553
     13549     13548     13551     13554     13550     13548     13551     13552
     13550     13548     13551     13553     13550     13548     13551     13554
     13551     13554     13557     13558     13551     13554     13557     13559
     13551     13554     13557     13560     13552     13551     13554     13555
     13552     13551     13554     13556     13552     13551     13554     13557
     13553     13551     13554     13555     13553     13551     13554     13556
     13553     13551     13554     13557     13554     13557     13560     13561
     13554     13557     13560     13562     13554     13557     13560     13563
     13555     13554     13557     13558     13555     13554     13557     13559
     13555     13554     13557     13560     13556     13554     13557     13558
     13556     13554     13557     13559     13556     13554     13557     13560
     13558     13557     13560     13561     13558     13557     13560     13562
     13558     13557     13560     13563     13559     13557     13560     13561
     13559     13557     13560     13562     13559     13557     13560     13563
     13564     13567     13570     13571     13564     13567     13570     13572
     13564     13567     13570     13573     13565     13564     13567     13568
     13565     13564     13567     13569     13565     13564     13567     13570
     13566     13564     13567     13568     13566     13564     13567     13569
     13566     13564     13567     13570     13567     13570     13573     13574
     13567     13570     13573     13575     13567     13570     13573     13576
     13568     13567     13570     13571     13568     13567     13570     13572
     13568     13567     13570     13573     13569     13567     13570     13571
     13569     13567     13570     13572     13569     13567     13570     13573
     13570     13573     13576     13577     13570     13573     13576     13578
     13570     13573     13576     13579     13571     13570     13573     13574
     13571     13570     13573     13575     13571     13570     13573     13576
     13572     13570     13573     13574     13572     13570     13573     13575
     13572     13570     13573     13576     13573     13576     13579     13580
     13573     13576     13579     13581     13573     13576     13579     13582
     13574     13573     13576     13577     13574     13573     13576     13578
     13574     13573     13576     13579     13575     13573     13576     13577
     13575     13573     13576     13578     13575     13573     13576     13579
     13576     13579     13582     13583     13576     13579     13582     13584
     13577     13576     13579     13580     13577     13576     13579     13581
     13577     13576     13579     13582     13578     13576     13579     13580
     13578     13576     13579     13581     13578     13576     13579     13582
     13579     13582     13584     13585     13579     13582     13584     13586
     13580     13579     13582     13583     13580     13579     13582     13584
     13581     13579     13582     13583     13581     13579     13582     13584
     13582     13584     13586     13587     13582     13584     13586     13588
     13582     13584     13586     13589     13583     13582     13584     13585
     13583     13582     13584     13586     13584     13586     13589     13590
     13584     13586     13589     13591     13584     13586     13589     13592
     13585     13584     13586     13587     13585     13584     13586     13588
     13585     13584     13586     13589     13586     13589     13592     13593
     13586     13589     13592     13594     13586     13589     13592     13595
     13587     13586     13589     13590     13587     13586     13589     13591
     13587     13586     13589     13592     13588     13586     13589     13590
     13588     13586     13589     13591     13588     13586     13589     13592
     13589     13592     13595     13596     13589     13592     13595     13597
     13589     13592     13595     13598     13590     13589     13592     13593
     13590     13589     13592     13594     13590     13589     13592     13595
     13591     13589     13592     13593     13591     13589     13592     13594
     13591     13589     13592     13595     13592     13595     13598     13599
     13592     13595     13598     13600     13592     13595     13598     13601
     13593     13592     13595     13596     13593     13592     13595     13597
     13593     13592     13595     13598     13594     13592     13595     13596
     13594     13592     13595     13597     13594     13592     13595     13598
     13595     13598     13601     13602     13595     13598     13601     13603
     13595     13598     13601     13604     13596     13595     13598     13599
     13596     13595     13598     13600     13596     13595     13598     13601
     13597     13595     13598     13599     13597     13595     13598     13600
     13597     13595     13598     13601     13598     13601     13604     13605
     13598     13601     13604     13606     13598     13601     13604     13607
     13599     13598     13601     13602     13599     13598     13601     13603
     13599     13598     13601     13604     13600     13598     13601     13602
     13600     13598     13601     13603     13600     13598     13601     13604
     13601     13604     13607     13608     13601     13604     13607     13609
     13601     13604     13607     13610     13602     13601     13604     13605
     13602     13601     13604     13606     13602     13601     13604     13607
     13603     13601     13604     13605     13603     13601     13604     13606
     13603     13601     13604     13607     13605     13604     13607     13608
     13605     13604     13607     13609     13605     13604     13607     13610
     13606     13604     13607     13608     13606     13604     13607     13609
     13606     13604     13607     13610     13611     13612     13627     13628
     13611     13612     13627     13629     13611     13612     13627     13633
     13612     13611     13615     13616     13612     13611     13615     13617
     13612     13611     13615     13618     13612     13611     13619     13620
     13612     13611     13619     13621     13612     13611     13619     13622
     13612     13611     13623     13624     13612     13611     13623     13625
     13612     13611     13623     13626     13612     13627     13633     13630
     13613     13612     13611     13615     13613     13612     13611     13619
     13613     13612     13611     13623     13613     13612     13627     13628
     13613     13612     13627     13629     13613     13612     13627     13633
     13614     13612     13611     13615     13614     13612     13611     13619
     13614     13612     13611     13623     13614     13612     13627     13628
     13614     13612     13627     13629     13614     13612     13627     13633
     13615     13611     13612     13627     13615     13611     13619     13620
     13615     13611     13619     13621     13615     13611     13619     13622
     13615     13611     13623     13624     13615     13611     13623     13625
     13615     13611     13623     13626     13616     13615     13611     13619
     13616     13615     13611     13623     13617     13615     13611     13619
     13617     13615     13611     13623     13618     13615     13611     13619
     13618     13615     13611     13623     13619     13611     13612     13627
     13619     13611     13623     13624     13619     13611     13623     13625
     13619     13611     13623     13626     13620     13619     13611     13623
     13621     13619     13611     13623     13622     13619     13611     13623
     13623     13611     13612     13627     13627     13633     13630     13631
     13627     13633     13630     13632     13627     13633     13630     13634
     13628     13627     13633     13630     13629     13627     13633     13630
     13630     13634     13635     13636     13630     13634     13635     13637
     13630     13634     13635     13638     13631     13630     13634     13635
     13632     13630     13634     13635     13633     13630     13634     13635
     13634     13635     13638     13639     13634     13635     13638     13640
     13634     13635     13638     13646     13635     13638     13640     13641
     13635     13638     13646     13647     13635     13638     13646     13648
     13635     13638     13646     13649     13636     13635     13638     13639
     13636     13635     13638     13640     13636     13635     13638     13646
     13637     13635     13638     13639     13637     13635     13638     13640
     13637     13635     13638     13646     13638     13640     13641     13642
     13638     13640     13641     13643     13638     13646     13649     13650
     13639     13638     13640     13641     13639     13638     13646     13647
     13639     13638     13646     13648     13639     13638     13646     13649
     13640     13638     13646     13647     13640     13638     13646     13648
     13640     13638     13646     13649     13640     13641     13643     13644
     13640     13641     13643     13645     13640     13641     13643     13655
     13641     13640     13638     13646     13641     13643     13655     13656
     13641     13643     13655     13657     13641     13643     13655     13658
     13642     13641     13643     13644     13642     13641     13643     13645
     13642     13641     13643     13655     13643     13655     13658     13659
     13643     13655     13658     13660     13643     13655     13658     13661
     13644     13643     13655     13656     13644     13643     13655     13657
     13644     13643     13655     13658     13645     13643     13655     13656
     13645     13643     13655     13657     13645     13643     13655     13658
     13646     13649     13650     13651     13646     13649     13650     13652
     13647     13646     13649     13650     13648     13646     13649     13650
     13649     13650     13652     13653     13649     13650     13652     13654
     13649     13650     13652     13702     13650     13652     13702     13703
     13650     13652     13702     13704     13650     13652     13702     13705
     13651     13650     13652     13653     13651     13650     13652     13654
     13651     13650     13652     13702     13652     13702     13705     13706
     13652     13702     13705     13707     13652     13702     13705     13708
     13653     13652     13702     13703     13653     13652     13702     13704
     13653     13652     13702     13705     13654     13652     13702     13703
     13654     13652     13702     13704     13654     13652     13702     13705
     13655     13658     13661     13662     13655     13658     13661     13663
     13655     13658     13661     13664     13656     13655     13658     13659
     13656     13655     13658     13660     13656     13655     13658     13661
     13657     13655     13658     13659     13657     13655     13658     13660
     13657     13655     13658     13661     13658     13661     13664     13665
     13658     13661     13664     13666     13658     13661     13664     13667
     13659     13658     13661     13662     13659     13658     13661     13663
     13659     13658     13661     13664     13660     13658     13661     13662
     13660     13658     13661     13663     13660     13658     13661     13664
     13661     13664     13667     13668     13661     13664     13667     13669
     13661     13664     13667     13670     13662     13661     13664     13665
     13662     13661     13664     13666     13662     13661     13664     13667
     13663     13661     13664     13665     13663     13661     13664     13666
     13663     13661     13664     13667     13664     13667     13670     13671
     13664     13667     13670     13672     13664     13667     13670     13673
     13665     13664     13667     13668     13665     13664     13667     13669
     13665     13664     13667     13670     13666     13664     13667     13668
     13666     13664     13667     13669     13666     13664     13667     13670
     13667     13670     13673     13674     13667     13670     13673     13675
     13668     13667     13670     13671     13668     13667     13670     13672
     13668     13667     13670     13673     13669     13667     13670     13671
     13669     13667     13670     13672     13669     13667     13670     13673
     13670     13673     13675     13676     13670     13673     13675     13677
     13671     13670     13673     13674     13671     13670     13673     13675
     13672     13670     13673     13674     13672     13670     13673     13675
     13673     13675     13677     13678     13673     13675     13677     13679
     13673     13675     13677     13680     13674     13673     13675     13676
     13674     13673     13675     13677     13675     13677     13680     13681
     13675     13677     13680     13682     13675     13677     13680     13683
     13676     13675     13677     13678     13676     13675     13677     13679
     13676     13675     13677     13680     13677     13680     13683     13684
     13677     13680     13683     13685     13677     13680     13683     13686
     13678     13677     13680     13681     13678     13677     13680     13682
     13678     13677     13680     13683     13679     13677     13680     13681
     13679     13677     13680     13682     13679     13677     13680     13683
     13680     13683     13686     13687     13680     13683     13686     13688
     13680     13683     13686     13689     13681     13680     13683     13684
     13681     13680     13683     13685     13681     13680     13683     13686
     13682     13680     13683     13684     13682     13680     13683     13685
     13682     13680     13683     13686     13683     13686     13689     13690
     13683     13686     13689     13691     13683     13686     13689     13692
     13684     13683     13686     13687     13684     13683     13686     13688
     13684     13683     13686     13689     13685     13683     13686     13687
     13685     13683     13686     13688     13685     13683     13686     13689
     13686     13689     13692     13693     13686     13689     13692     13694
     13686     13689     13692     13695     13687     13686     13689     13690
     13687     13686     13689     13691     13687     13686     13689     13692
     13688     13686     13689     13690     13688     13686     13689     13691
     13688     13686     13689     13692     13689     13692     13695     13696
     13689     13692     13695     13697     13689     13692     13695     13698
     13690     13689     13692     13693     13690     13689     13692     13694
     13690     13689     13692     13695     13691     13689     13692     13693
     13691     13689     13692     13694     13691     13689     13692     13695
     13692     13695     13698     13699     13692     13695     13698     13700
     13692     13695     13698     13701     13693     13692     13695     13696
     13693     13692     13695     13697     13693     13692     13695     13698
     13694     13692     13695     13696     13694     13692     13695     13697
     13694     13692     13695     13698     13696     13695     13698     13699
     13696     13695     13698     13700     13696     13695     13698     13701
     13697     13695     13698     13699     13697     13695     13698     13700
     13697     13695     13698     13701     13702     13705     13708     13709
     13702     13705     13708     13710     13702     13705     13708     13711
     13703     13702     13705     13706     13703     13702     13705     13707
     13703     13702     13705     13708     13704     13702     13705     13706
     13704     13702     13705     13707     13704     13702     13705     13708
     13705     13708     13711     13712     13705     13708     13711     13713
     13705     13708     13711     13714     13706     13705     13708     13709
     13706     13705     13708     13710     13706     13705     13708     13711
     13707     13705     13708     13709     13707     13705     13708     13710
     13707     13705     13708     13711     13708     13711     13714     13715
     13708     13711     13714     13716     13708     13711     13714     13717
     13709     13708     13711     13712     13709     13708     13711     13713
     13709     13708     13711     13714     13710     13708     13711     13712
     13710     13708     13711     13713     13710     13708     13711     13714
     13711     13714     13717     13718     13711     13714     13717     13719
     13711     13714     13717     13720     13712     13711     13714     13715
     13712     13711     13714     13716     13712     13711     13714     13717
     13713     13711     13714     13715     13713     13711     13714     13716
     13713     13711     13714     13717     13714     13717     13720     13721
     13714     13717     13720     13722     13715     13714     13717     13718
     13715     13714     13717     13719     13715     13714     13717     13720
     13716     13714     13717     13718     13716     13714     13717     13719
     13716     13714     13717     13720     13717     13720     13722     13723
     13717     13720     13722     13724     13718     13717     13720     13721
     13718     13717     13720     13722     13719     13717     13720     13721
     13719     13717     13720     13722     13720     13722     13724     13725
     13720     13722     13724     13726     13720     13722     13724     13727
     13721     13720     13722     13723     13721     13720     13722     13724
     13722     13724     13727     13728     13722     13724     13727     13729
     13722     13724     13727     13730     13723     13722     13724     13725
     13723     13722     13724     13726     13723     13722     13724     13727
     13724     13727     13730     13731     13724     13727     13730     13732
     13724     13727     13730     13733     13725     13724     13727     13728
     13725     13724     13727     13729     13725     13724     13727     13730
     13726     13724     13727     13728     13726     13724     13727     13729
     13726     13724     13727     13730     13727     13730     13733     13734
     13727     13730     13733     13735     13727     13730     13733     13736
     13728     13727     13730     13731     13728     13727     13730     13732
     13728     13727     13730     13733     13729     13727     13730     13731
     13729     13727     13730     13732     13729     13727     13730     13733
     13730     13733     13736     13737     13730     13733     13736     13738
     13730     13733     13736     13739     13731     13730     13733     13734
     13731     13730     13733     13735     13731     13730     13733     13736
     13732     13730     13733     13734     13732     13730     13733     13735
     13732     13730     13733     13736     13733     13736     13739     13740
     13733     13736     13739     13741     13733     13736     13739     13742
     13734     13733     13736     13737     13734     13733     13736     13738
     13734     13733     13736     13739     13735     13733     13736     13737
     13735     13733     13736     13738     13735     13733     13736     13739
     13736     13739     13742     13743     13736     13739     13742     13744
     13736     13739     13742     13745     13737     13736     13739     13740
     13737     13736     13739     13741     13737     13736     13739     13742
     13738     13736     13739     13740     13738     13736     13739     13741
     13738     13736     13739     13742     13739     13742     13745     13746
     13739     13742     13745     13747     13739     13742     13745     13748
     13740     13739     13742     13743     13740     13739     13742     13744
     13740     13739     13742     13745     13741     13739     13742     13743
     13741     13739     13742     13744     13741     13739     13742     13745
     13743     13742     13745     13746     13743     13742     13745     13747
     13743     13742     13745     13748     13744     13742     13745     13746
     13744     13742     13745     13747     13744     13742     13745     13748
     13749     13750     13765     13766     13749     13750     13765     13767
     13749     13750     13765     13771     13750     13749     13753     13754
     13750     13749     13753     13755     13750     13749     13753     13756
     13750     13749     13757     13758     13750     13749     13757     13759
     13750     13749     13757     13760     13750     13749     13761     13762
     13750     13749     13761     13763     13750     13749     13761     13764
     13750     13765     13771     13768     13751     13750     13749     13753
     13751     13750     13749     13757     13751     13750     13749     13761
     13751     13750     13765     13766     13751     13750     13765     13767
     13751     13750     13765     13771     13752     13750     13749     13753
     13752     13750     13749     13757     13752     13750     13749     13761
     13752     13750     13765     13766     13752     13750     13765     13767
     13752     13750     13765     13771     13753     13749     13750     13765
     13753     13749     13757     13758     13753     13749     13757     13759
     13753     13749     13757     13760     13753     13749     13761     13762
     13753     13749     13761     13763     13753     13749     13761     13764
     13754     13753     13749     13757     13754     13753     13749     13761
     13755     13753     13749     13757     13755     13753     13749     13761
     13756     13753     13749     13757     13756     13753     13749     13761
     13757     13749     13750     13765     13757     13749     13761     13762
     13757     13749     13761     13763     13757     13749     13761     13764
     13758     13757     13749     13761     13759     13757     13749     13761
     13760     13757     13749     13761     13761     13749     13750     13765
     13765     13771     13768     13769     13765     13771     13768     13770
     13765     13771     13768     13772     13766     13765     13771     13768
     13767     13765     13771     13768     13768     13772     13773     13774
     13768     13772     13773     13775     13768     13772     13773     13776
     13769     13768     13772     13773     13770     13768     13772     13773
     13771     13768     13772     13773     13772     13773     13776     13777
     13772     13773     13776     13778     13772     13773     13776     13784
     13773     13776     13778     13779     13773     13776     13784     13785
     13773     13776     13784     13786     13773     13776     13784     13787
     13774     13773     13776     13777     13774     13773     13776     13778
     13774     13773     13776     13784     13775     13773     13776     13777
     13775     13773     13776     13778     13775     13773     13776     13784
     13776     13778     13779     13780     13776     13778     13779     13781
     13776     13784     13787     13788     13777     13776     13778     13779
     13777     13776     13784     13785     13777     13776     13784     13786
     13777     13776     13784     13787     13778     13776     13784     13785
     13778     13776     13784     13786     13778     13776     13784     13787
     13778     13779     13781     13782     13778     13779     13781     13783
     13778     13779     13781     13793     13779     13778     13776     13784
     13779     13781     13793     13794     13779     13781     13793     13795
     13779     13781     13793     13796     13780     13779     13781     13782
     13780     13779     13781     13783     13780     13779     13781     13793
     13781     13793     13796     13797     13781     13793     13796     13798
     13781     13793     13796     13799     13782     13781     13793     13794
     13782     13781     13793     13795     13782     13781     13793     13796
     13783     13781     13793     13794     13783     13781     13793     13795
     13783     13781     13793     13796     13784     13787     13788     13789
     13784     13787     13788     13790     13785     13784     13787     13788
     13786     13784     13787     13788     13787     13788     13790     13791
     13787     13788     13790     13792     13787     13788     13790     13840
     13788     13790     13840     13841     13788     13790     13840     13842
     13788     13790     13840     13843     13789     13788     13790     13791
     13789     13788     13790     13792     13789     13788     13790     13840
     13790     13840     13843     13844     13790     13840     13843     13845
     13790     13840     13843     13846     13791     13790     13840     13841
     13791     13790     13840     13842     13791     13790     13840     13843
     13792     13790     13840     13841     13792     13790     13840     13842
     13792     13790     13840     13843     13793     13796     13799     13800
     13793     13796     13799     13801     13793     13796     13799     13802
     13794     13793     13796     13797     13794     13793     13796     13798
     13794     13793     13796     13799     13795     13793     13796     13797
     13795     13793     13796     13798     13795     13793     13796     13799
     13796     13799     13802     13803     13796     13799     13802     13804
     13796     13799     13802     13805     13797     13796     13799     13800
     13797     13796     13799     13801     13797     13796     13799     13802
     13798     13796     13799     13800     13798     13796     13799     13801
     13798     13796     13799     13802     13799     13802     13805     13806
     13799     13802     13805     13807     13799     13802     13805     13808
     13800     13799     13802     13803     13800     13799     13802     13804
     13800     13799     13802     13805     13801     13799     13802     13803
     13801     13799     13802     13804     13801     13799     13802     13805
     13802     13805     13808     13809     13802     13805     13808     13810
     13802     13805     13808     13811     13803     13802     13805     13806
     13803     13802     13805     13807     13803     13802     13805     13808
     13804     13802     13805     13806     13804     13802     13805     13807
     13804     13802     13805     13808     13805     13808     13811     13812
     13805     13808     13811     13813     13806     13805     13808     13809
     13806     13805     13808     13810     13806     13805     13808     13811
     13807     13805     13808     13809     13807     13805     13808     13810
     13807     13805     13808     13811     13808     13811     13813     13814
     13808     13811     13813     13815     13809     13808     13811     13812
     13809     13808     13811     13813     13810     13808     13811     13812
     13810     13808     13811     13813     13811     13813     13815     13816
     13811     13813     13815     13817     13811     13813     13815     13818
     13812     13811     13813     13814     13812     13811     13813     13815
     13813     13815     13818     13819     13813     13815     13818     13820
     13813     13815     13818     13821     13814     13813     13815     13816
     13814     13813     13815     13817     13814     13813     13815     13818
     13815     13818     13821     13822     13815     13818     13821     13823
     13815     13818     13821     13824     13816     13815     13818     13819
     13816     13815     13818     13820     13816     13815     13818     13821
     13817     13815     13818     13819     13817     13815     13818     13820
     13817     13815     13818     13821     13818     13821     13824     13825
     13818     13821     13824     13826     13818     13821     13824     13827
     13819     13818     13821     13822     13819     13818     13821     13823
     13819     13818     13821     13824     13820     13818     13821     13822
     13820     13818     13821     13823     13820     13818     13821     13824
     13821     13824     13827     13828     13821     13824     13827     13829
     13821     13824     13827     13830     13822     13821     13824     13825
     13822     13821     13824     13826     13822     13821     13824     13827
     13823     13821     13824     13825     13823     13821     13824     13826
     13823     13821     13824     13827     13824     13827     13830     13831
     13824     13827     13830     13832     13824     13827     13830     13833
     13825     13824     13827     13828     13825     13824     13827     13829
     13825     13824     13827     13830     13826     13824     13827     13828
     13826     13824     13827     13829     13826     13824     13827     13830
     13827     13830     13833     13834     13827     13830     13833     13835
     13827     13830     13833     13836     13828     13827     13830     13831
     13828     13827     13830     13832     13828     13827     13830     13833
     13829     13827     13830     13831     13829     13827     13830     13832
     13829     13827     13830     13833     13830     13833     13836     13837
     13830     13833     13836     13838     13830     13833     13836     13839
     13831     13830     13833     13834     13831     13830     13833     13835
     13831     13830     13833     13836     13832     13830     13833     13834
     13832     13830     13833     13835     13832     13830     13833     13836
     13834     13833     13836     13837     13834     13833     13836     13838
     13834     13833     13836     13839     13835     13833     13836     13837
     13835     13833     13836     13838     13835     13833     13836     13839
     13840     13843     13846     13847     13840     13843     13846     13848
     13840     13843     13846     13849     13841     13840     13843     13844
     13841     13840     13843     13845     13841     13840     13843     13846
     13842     13840     13843     13844     13842     13840     13843     13845
     13842     13840     13843     13846     13843     13846     13849     13850
     13843     13846     13849     13851     13843     13846     13849     13852
     13844     13843     13846     13847     13844     13843     13846     13848
     13844     13843     13846     13849     13845     13843     13846     13847
     13845     13843     13846     13848     13845     13843     13846     13849
     13846     13849     13852     13853     13846     13849     13852     13854
     13846     13849     13852     13855     13847     13846     13849     13850
     13847     13846     13849     13851     13847     13846     13849     13852
     13848     13846     13849     13850     13848     13846     13849     13851
     13848     13846     13849     13852     13849     13852     13855     13856
     13849     13852     13855     13857     13849     13852     13855     13858
     13850     13849     13852     13853     13850     13849     13852     13854
     13850     13849     13852     13855     13851     13849     13852     13853
     13851     13849     13852     13854     13851     13849     13852     13855
     13852     13855     13858     13859     13852     13855     13858     13860
     13853     13852     13855     13856     13853     13852     13855     13857
     13853     13852     13855     13858     13854     13852     13855     13856
     13854     13852     13855     13857     13854     13852     13855     13858
     13855     13858     13860     13861     13855     13858     13860     13862
     13856     13855     13858     13859     13856     13855     13858     13860
     13857     13855     13858     13859     13857     13855     13858     13860
     13858     13860     13862     13863     13858     13860     13862     13864
     13858     13860     13862     13865     13859     13858     13860     13861
     13859     13858     13860     13862     13860     13862     13865     13866
     13860     13862     13865     13867     13860     13862     13865     13868
     13861     13860     13862     13863     13861     13860     13862     13864
     13861     13860     13862     13865     13862     13865     13868     13869
     13862     13865     13868     13870     13862     13865     13868     13871
     13863     13862     13865     13866     13863     13862     13865     13867
     13863     13862     13865     13868     13864     13862     13865     13866
     13864     13862     13865     13867     13864     13862     13865     13868
     13865     13868     13871     13872     13865     13868     13871     13873
     13865     13868     13871     13874     13866     13865     13868     13869
     13866     13865     13868     13870     13866     13865     13868     13871
     13867     13865     13868     13869     13867     13865     13868     13870
     13867     13865     13868     13871     13868     13871     13874     13875
     13868     13871     13874     13876     13868     13871     13874     13877
     13869     13868     13871     13872     13869     13868     13871     13873
     13869     13868     13871     13874     13870     13868     13871     13872
     13870     13868     13871     13873     13870     13868     13871     13874
     13871     13874     13877     13878     13871     13874     13877     13879
     13871     13874     13877     13880     13872     13871     13874     13875
     13872     13871     13874     13876     13872     13871     13874     13877
     13873     13871     13874     13875     13873     13871     13874     13876
     13873     13871     13874     13877     13874     13877     13880     13881
     13874     13877     13880     13882     13874     13877     13880     13883
     13875     13874     13877     13878     13875     13874     13877     13879
     13875     13874     13877     13880     13876     13874     13877     13878
     13876     13874     13877     13879     13876     13874     13877     13880
     13877     13880     13883     13884     13877     13880     13883     13885
     13877     13880     13883     13886     13878     13877     13880     13881
     13878     13877     13880     13882     13878     13877     13880     13883
     13879     13877     13880     13881     13879     13877     13880     13882
     13879     13877     13880     13883     13881     13880     13883     13884
     13881     13880     13883     13885     13881     13880     13883     13886
     13882     13880     13883     13884     13882     13880     13883     13885
     13882     13880     13883     13886     13887     13888     13903     13904
     13887     13888     13903     13905     13887     13888     13903     13909
     13888     13887     13891     13892     13888     13887     13891     13893
     13888     13887     13891     13894     13888     13887     13895     13896
     13888     13887     13895     13897     13888     13887     13895     13898
     13888     13887     13899     13900     13888     13887     13899     13901
     13888     13887     13899     13902     13888     13903     13909     13906
     13889     13888     13887     13891     13889     13888     13887     13895
     13889     13888     13887     13899     13889     13888     13903     13904
     13889     13888     13903     13905     13889     13888     13903     13909
     13890     13888     13887     13891     13890     13888     13887     13895
     13890     13888     13887     13899     13890     13888     13903     13904
     13890     13888     13903     13905     13890     13888     13903     13909
     13891     13887     13888     13903     13891     13887     13895     13896
     13891     13887     13895     13897     13891     13887     13895     13898
     13891     13887     13899     13900     13891     13887     13899     13901
     13891     13887     13899     13902     13892     13891     13887     13895
     13892     13891     13887     13899     13893     13891     13887     13895
     13893     13891     13887     13899     13894     13891     13887     13895
     13894     13891     13887     13899     13895     13887     13888     13903
     13895     13887     13899     13900     13895     13887     13899     13901
     13895     13887     13899     13902     13896     13895     13887     13899
     13897     13895     13887     13899     13898     13895     13887     13899
     13899     13887     13888     13903     13903     13909     13906     13907
     13903     13909     13906     13908     13903     13909     13906     13910
     13904     13903     13909     13906     13905     13903     13909     13906
     13906     13910     13911     13912     13906     13910     13911     13913
     13906     13910     13911     13914     13907     13906     13910     13911
     13908     13906     13910     13911     13909     13906     13910     13911
     13910     13911     13914     13915     13910     13911     13914     13916
     13910     13911     13914     13922     13911     13914     13916     13917
     13911     13914     13922     13923     13911     13914     13922     13924
     13911     13914     13922     13925     13912     13911     13914     13915
     13912     13911     13914     13916     13912     13911     13914     13922
     13913     13911     13914     13915     13913     13911     13914     13916
     13913     13911     13914     13922     13914     13916     13917     13918
     13914     13916     13917     13919     13914     13922     13925     13926
     13915     13914     13916     13917     13915     13914     13922     13923
     13915     13914     13922     13924     13915     13914     13922     13925
     13916     13914     13922     13923     13916     13914     13922     13924
     13916     13914     13922     13925     13916     13917     13919     13920
     13916     13917     13919     13921     13916     13917     13919     13931
     13917     13916     13914     13922     13917     13919     13931     13932
     13917     13919     13931     13933     13917     13919     13931     13934
     13918     13917     13919     13920     13918     13917     13919     13921
     13918     13917     13919     13931     13919     13931     13934     13935
     13919     13931     13934     13936     13919     13931     13934     13937
     13920     13919     13931     13932     13920     13919     13931     13933
     13920     13919     13931     13934     13921     13919     13931     13932
     13921     13919     13931     13933     13921     13919     13931     13934
     13922     13925     13926     13927     13922     13925     13926     13928
     13923     13922     13925     13926     13924     13922     13925     13926
     13925     13926     13928     13929     13925     13926     13928     13930
     13925     13926     13928     13978     13926     13928     13978     13979
     13926     13928     13978     13980     13926     13928     13978     13981
     13927     13926     13928     13929     13927     13926     13928     13930
     13927     13926     13928     13978     13928     13978     13981     13982
     13928     13978     13981     13983     13928     13978     13981     13984
     13929     13928     13978     13979     13929     13928     13978     13980
     13929     13928     13978     13981     13930     13928     13978     13979
     13930     13928     13978     13980     13930     13928     13978     13981
     13931     13934     13937     13938     13931     13934     13937     13939
     13931     13934     13937     13940     13932     13931     13934     13935
     13932     13931     13934     13936     13932     13931     13934     13937
     13933     13931     13934     13935     13933     13931     13934     13936
     13933     13931     13934     13937     13934     13937     13940     13941
     13934     13937     13940     13942     13934     13937     13940     13943
     13935     13934     13937     13938     13935     13934     13937     13939
     13935     13934     13937     13940     13936     13934     13937     13938
     13936     13934     13937     13939     13936     13934     13937     13940
     13937     13940     13943     13944     13937     13940     13943     13945
     13937     13940     13943     13946     13938     13937     13940     13941
     13938     13937     13940     13942     13938     13937     13940     13943
     13939     13937     13940     13941     13939     13937     13940     13942
     13939     13937     13940     13943     13940     13943     13946     13947
     13940     13943     13946     13948     13940     13943     13946     13949
     13941     13940     13943     13944     13941     13940     13943     13945
     13941     13940     13943     13946     13942     13940     13943     13944
     13942     13940     13943     13945     13942     13940     13943     13946
     13943     13946     13949     13950     13943     13946     13949     13951
     13944     13943     13946     13947     13944     13943     13946     13948
     13944     13943     13946     13949     13945     13943     13946     13947
     13945     13943     13946     13948     13945     13943     13946     13949
     13946     13949     13951     13952     13946     13949     13951     13953
     13947     13946     13949     13950     13947     13946     13949     13951
     13948     13946     13949     13950     13948     13946     13949     13951
     13949     13951     13953     13954     13949     13951     13953     13955
     13949     13951     13953     13956     13950     13949     13951     13952
     13950     13949     13951     13953     13951     13953     13956     13957
     13951     13953     13956     13958     13951     13953     13956     13959
     13952     13951     13953     13954     13952     13951     13953     13955
     13952     13951     13953     13956     13953     13956     13959     13960
     13953     13956     13959     13961     13953     13956     13959     13962
     13954     13953     13956     13957     13954     13953     13956     13958
     13954     13953     13956     13959     13955     13953     13956     13957
     13955     13953     13956     13958     13955     13953     13956     13959
     13956     13959     13962     13963     13956     13959     13962     13964
     13956     13959     13962     13965     13957     13956     13959     13960
     13957     13956     13959     13961     13957     13956     13959     13962
     13958     13956     13959     13960     13958     13956     13959     13961
     13958     13956     13959     13962     13959     13962     13965     13966
     13959     13962     13965     13967     13959     13962     13965     13968
     13960     13959     13962     13963     13960     13959     13962     13964
     13960     13959     13962     13965     13961     13959     13962     13963
     13961     13959     13962     13964     13961     13959     13962     13965
     13962     13965     13968     13969     13962     13965     13968     13970
     13962     13965     13968     13971     13963     13962     13965     13966
     13963     13962     13965     13967     13963     13962     13965     13968
     13964     13962     13965     13966     13964     13962     13965     13967
     13964     13962     13965     13968     13965     13968     13971     13972
     13965     13968     13971     13973     13965     13968     13971     13974
     13966     13965     13968     13969     13966     13965     13968     13970
     13966     13965     13968     13971     13967     13965     13968     13969
     13967     13965     13968     13970     13967     13965     13968     13971
     13968     13971     13974     13975     13968     13971     13974     13976
     13968     13971     13974     13977     13969     13968     13971     13972
     13969     13968     13971     13973     13969     13968     13971     13974
     13970     13968     13971     13972     13970     13968     13971     13973
     13970     13968     13971     13974     13972     13971     13974     13975
     13972     13971     13974     13976     13972     13971     13974     13977
     13973     13971     13974     13975     13973     13971     13974     13976
     13973     13971     13974     13977     13978     13981     13984     13985
     13978     13981     13984     13986     13978     13981     13984     13987
     13979     13978     13981     13982     13979     13978     13981     13983
     13979     13978     13981     13984     13980     13978     13981     13982
     13980     13978     13981     13983     13980     13978     13981     13984
     13981     13984     13987     13988     13981     13984     13987     13989
     13981     13984     13987     13990     13982     13981     13984     13985
     13982     13981     13984     13986     13982     13981     13984     13987
     13983     13981     13984     13985     13983     13981     13984     13986
     13983     13981     13984     13987     13984     13987     13990     13991
     13984     13987     13990     13992     13984     13987     13990     13993
     13985     13984     13987     13988     13985     13984     13987     13989
     13985     13984     13987     13990     13986     13984     13987     13988
     13986     13984     13987     13989     13986     13984     13987     13990
     13987     13990     13993     13994     13987     13990     13993     13995
     13987     13990     13993     13996     13988     13987     13990     13991
     13988     13987     13990     13992     13988     13987     13990     13993
     13989     13987     13990     13991     13989     13987     13990     13992
     13989     13987     13990     13993     13990     13993     13996     13997
     13990     13993     13996     13998     13991     13990     13993     13994
     13991     13990     13993     13995     13991     13990     13993     13996
     13992     13990     13993     13994     13992     13990     13993     13995
     13992     13990     13993     13996     13993     13996     13998     13999
     13993     13996     13998     14000     13994     13993     13996     13997
     13994     13993     13996     13998     13995     13993     13996     13997
     13995     13993     13996     13998     13996     13998     14000     14001
     13996     13998     14000     14002     13996     13998     14000     14003
     13997     13996     13998     13999     13997     13996     13998     14000
     13998     14000     14003     14004     13998     14000     14003     14005
     13998     14000     14003     14006     13999     13998     14000     14001
     13999     13998     14000     14002     13999     13998     14000     14003
     14000     14003     14006     14007     14000     14003     14006     14008
     14000     14003     14006     14009     14001     14000     14003     14004
     14001     14000     14003     14005     14001     14000     14003     14006
     14002     14000     14003     14004     14002     14000     14003     14005
     14002     14000     14003     14006     14003     14006     14009     14010
     14003     14006     14009     14011     14003     14006     14009     14012
     14004     14003     14006     14007     14004     14003     14006     14008
     14004     14003     14006     14009     14005     14003     14006     14007
     14005     14003     14006     14008     14005     14003     14006     14009
     14006     14009     14012     14013     14006     14009     14012     14014
     14006     14009     14012     14015     14007     14006     14009     14010
     14007     14006     14009     14011     14007     14006     14009     14012
     14008     14006     14009     14010     14008     14006     14009     14011
     14008     14006     14009     14012     14009     14012     14015     14016
     14009     14012     14015     14017     14009     14012     14015     14018
     14010     14009     14012     14013     14010     14009     14012     14014
     14010     14009     14012     14015     14011     14009     14012     14013
     14011     14009     14012     14014     14011     14009     14012     14015
     14012     14015     14018     14019     14012     14015     14018     14020
     14012     14015     14018     14021     14013     14012     14015     14016
     14013     14012     14015     14017     14013     14012     14015     14018
     14014     14012     14015     14016     14014     14012     14015     14017
     14014     14012     14015     14018     14015     14018     14021     14022
     14015     14018     14021     14023     14015     14018     14021     14024
     14016     14015     14018     14019     14016     14015     14018     14020
     14016     14015     14018     14021     14017     14015     14018     14019
     14017     14015     14018     14020     14017     14015     14018     14021
     14019     14018     14021     14022     14019     14018     14021     14023
     14019     14018     14021     14024     14020     14018     14021     14022
     14020     14018     14021     14023     14020     14018     14021     14024
     14025     14026     14041     14042     14025     14026     14041     14043
     14025     14026     14041     14047     14026     14025     14029     14030
     14026     14025     14029     14031     14026     14025     14029     14032
     14026     14025     14033     14034     14026     14025     14033     14035
     14026     14025     14033     14036     14026     14025     14037     14038
     14026     14025     14037     14039     14026     14025     14037     14040
     14026     14041     14047     14044     14027     14026     14025     14029
     14027     14026     14025     14033     14027     14026     14025     14037
     14027     14026     14041     14042     14027     14026     14041     14043
     14027     14026     14041     14047     14028     14026     14025     14029
     14028     14026     14025     14033     14028     14026     14025     14037
     14028     14026     14041     14042     14028     14026     14041     14043
     14028     14026     14041     14047     14029     14025     14026     14041
     14029     14025     14033     14034     14029     14025     14033     14035
     14029     14025     14033     14036     14029     14025     14037     14038
     14029     14025     14037     14039     14029     14025     14037     14040
     14030     14029     14025     14033     14030     14029     14025     14037
     14031     14029     14025     14033     14031     14029     14025     14037
     14032     14029     14025     14033     14032     14029     14025     14037
     14033     14025     14026     14041     14033     14025     14037     14038
     14033     14025     14037     14039     14033     14025     14037     14040
     14034     14033     14025     14037     14035     14033     14025     14037
     14036     14033     14025     14037     14037     14025     14026     14041
     14041     14047     14044     14045     14041     14047     14044     14046
     14041     14047     14044     14048     14042     14041     14047     14044
     14043     14041     14047     14044     14044     14048     14049     14050
     14044     14048     14049     14051     14044     14048     14049     14052
     14045     14044     14048     14049     14046     14044     14048     14049
     14047     14044     14048     14049     14048     14049     14052     14053
     14048     14049     14052     14054     14048     14049     14052     14060
     14049     14052     14054     14055     14049     14052     14060     14061
     14049     14052     14060     14062     14049     14052     14060     14063
     14050     14049     14052     14053     14050     14049     14052     14054
     14050     14049     14052     14060     14051     14049     14052     14053
     14051     14049     14052     14054     14051     14049     14052     14060
     14052     14054     14055     14056     14052     14054     14055     14057
     14052     14060     14063     14064     14053     14052     14054     14055
     14053     14052     14060     14061     14053     14052     14060     14062
     14053     14052     14060     14063     14054     14052     14060     14061
     14054     14052     14060     14062     14054     14052     14060     14063
     14054     14055     14057     14058     14054     14055     14057     14059
     14054     14055     14057     14069     14055     14054     14052     14060
     14055     14057     14069     14070     14055     14057     14069     14071
     14055     14057     14069     14072     14056     14055     14057     14058
     14056     14055     14057     14059     14056     14055     14057     14069
     14057     14069     14072     14073     14057     14069     14072     14074
     14057     14069     14072     14075     14058     14057     14069     14070
     14058     14057     14069     14071     14058     14057     14069     14072
     14059     14057     14069     14070     14059     14057     14069     14071
     14059     14057     14069     14072     14060     14063     14064     14065
     14060     14063     14064     14066     14061     14060     14063     14064
     14062     14060     14063     14064     14063     14064     14066     14067
     14063     14064     14066     14068     14063     14064     14066     14116
     14064     14066     14116     14117     14064     14066     14116     14118
     14064     14066     14116     14119     14065     14064     14066     14067
     14065     14064     14066     14068     14065     14064     14066     14116
     14066     14116     14119     14120     14066     14116     14119     14121
     14066     14116     14119     14122     14067     14066     14116     14117
     14067     14066     14116     14118     14067     14066     14116     14119
     14068     14066     14116     14117     14068     14066     14116     14118
     14068     14066     14116     14119     14069     14072     14075     14076
     14069     14072     14075     14077     14069     14072     14075     14078
     14070     14069     14072     14073     14070     14069     14072     14074
     14070     14069     14072     14075     14071     14069     14072     14073
     14071     14069     14072     14074     14071     14069     14072     14075
     14072     14075     14078     14079     14072     14075     14078     14080
     14072     14075     14078     14081     14073     14072     14075     14076
     14073     14072     14075     14077     14073     14072     14075     14078
     14074     14072     14075     14076     14074     14072     14075     14077
     14074     14072     14075     14078     14075     14078     14081     14082
     14075     14078     14081     14083     14075     14078     14081     14084
     14076     14075     14078     14079     14076     14075     14078     14080
     14076     14075     14078     14081     14077     14075     14078     14079
     14077     14075     14078     14080     14077     14075     14078     14081
     14078     14081     14084     14085     14078     14081     14084     14086
     14078     14081     14084     14087     14079     14078     14081     14082
     14079     14078     14081     14083     14079     14078     14081     14084
     14080     14078     14081     14082     14080     14078     14081     14083
     14080     14078     14081     14084     14081     14084     14087     14088
     14081     14084     14087     14089     14082     14081     14084     14085
     14082     14081     14084     14086     14082     14081     14084     14087
     14083     14081     14084     14085     14083     14081     14084     14086
     14083     14081     14084     14087     14084     14087     14089     14090
     14084     14087     14089     14091     14085     14084     14087     14088
     14085     14084     14087     14089     14086     14084     14087     14088
     14086     14084     14087     14089     14087     14089     14091     14092
     14087     14089     14091     14093     14087     14089     14091     14094
     14088     14087     14089     14090     14088     14087     14089     14091
     14089     14091     14094     14095     14089     14091     14094     14096
     14089     14091     14094     14097     14090     14089     14091     14092
     14090     14089     14091     14093     14090     14089     14091     14094
     14091     14094     14097     14098     14091     14094     14097     14099
     14091     14094     14097     14100     14092     14091     14094     14095
     14092     14091     14094     14096     14092     14091     14094     14097
     14093     14091     14094     14095     14093     14091     14094     14096
     14093     14091     14094     14097     14094     14097     14100     14101
     14094     14097     14100     14102     14094     14097     14100     14103
     14095     14094     14097     14098     14095     14094     14097     14099
     14095     14094     14097     14100     14096     14094     14097     14098
     14096     14094     14097     14099     14096     14094     14097     14100
     14097     14100     14103     14104     14097     14100     14103     14105
     14097     14100     14103     14106     14098     14097     14100     14101
     14098     14097     14100     14102     14098     14097     14100     14103
     14099     14097     14100     14101     14099     14097     14100     14102
     14099     14097     14100     14103     14100     14103     14106     14107
     14100     14103     14106     14108     14100     14103     14106     14109
     14101     14100     14103     14104     14101     14100     14103     14105
     14101     14100     14103     14106     14102     14100     14103     14104
     14102     14100     14103     14105     14102     14100     14103     14106
     14103     14106     14109     14110     14103     14106     14109     14111
     14103     14106     14109     14112     14104     14103     14106     14107
     14104     14103     14106     14108     14104     14103     14106     14109
     14105     14103     14106     14107     14105     14103     14106     14108
     14105     14103     14106     14109     14106     14109     14112     14113
     14106     14109     14112     14114     14106     14109     14112     14115
     14107     14106     14109     14110     14107     14106     14109     14111
     14107     14106     14109     14112     14108     14106     14109     14110
     14108     14106     14109     14111     14108     14106     14109     14112
     14110     14109     14112     14113     14110     14109     14112     14114
     14110     14109     14112     14115     14111     14109     14112     14113
     14111     14109     14112     14114     14111     14109     14112     14115
     14116     14119     14122     14123     14116     14119     14122     14124
     14116     14119     14122     14125     14117     14116     14119     14120
     14117     14116     14119     14121     14117     14116     14119     14122
     14118     14116     14119     14120     14118     14116     14119     14121
     14118     14116     14119     14122     14119     14122     14125     14126
     14119     14122     14125     14127     14119     14122     14125     14128
     14120     14119     14122     14123     14120     14119     14122     14124
     14120     14119     14122     14125     14121     14119     14122     14123
     14121     14119     14122     14124     14121     14119     14122     14125
     14122     14125     14128     14129     14122     14125     14128     14130
     14122     14125     14128     14131     14123     14122     14125     14126
     14123     14122     14125     14127     14123     14122     14125     14128
     14124     14122     14125     14126     14124     14122     14125     14127
     14124     14122     14125     14128     14125     14128     14131     14132
     14125     14128     14131     14133     14125     14128     14131     14134
     14126     14125     14128     14129     14126     14125     14128     14130
     14126     14125     14128     14131     14127     14125     14128     14129
     14127     14125     14128     14130     14127     14125     14128     14131
     14128     14131     14134     14135     14128     14131     14134     14136
     14129     14128     14131     14132     14129     14128     14131     14133
     14129     14128     14131     14134     14130     14128     14131     14132
     14130     14128     14131     14133     14130     14128     14131     14134
     14131     14134     14136     14137     14131     14134     14136     14138
     14132     14131     14134     14135     14132     14131     14134     14136
     14133     14131     14134     14135     14133     14131     14134     14136
     14134     14136     14138     14139     14134     14136     14138     14140
     14134     14136     14138     14141     14135     14134     14136     14137
     14135     14134     14136     14138     14136     14138     14141     14142
     14136     14138     14141     14143     14136     14138     14141     14144
     14137     14136     14138     14139     14137     14136     14138     14140
     14137     14136     14138     14141     14138     14141     14144     14145
     14138     14141     14144     14146     14138     14141     14144     14147
     14139     14138     14141     14142     14139     14138     14141     14143
     14139     14138     14141     14144     14140     14138     14141     14142
     14140     14138     14141     14143     14140     14138     14141     14144
     14141     14144     14147     14148     14141     14144     14147     14149
     14141     14144     14147     14150     14142     14141     14144     14145
     14142     14141     14144     14146     14142     14141     14144     14147
     14143     14141     14144     14145     14143     14141     14144     14146
     14143     14141     14144     14147     14144     14147     14150     14151
     14144     14147     14150     14152     14144     14147     14150     14153
     14145     14144     14147     14148     14145     14144     14147     14149
     14145     14144     14147     14150     14146     14144     14147     14148
     14146     14144     14147     14149     14146     14144     14147     14150
     14147     14150     14153     14154     14147     14150     14153     14155
     14147     14150     14153     14156     14148     14147     14150     14151
     14148     14147     14150     14152     14148     14147     14150     14153
     14149     14147     14150     14151     14149     14147     14150     14152
     14149     14147     14150     14153     14150     14153     14156     14157
     14150     14153     14156     14158     14150     14153     14156     14159
     14151     14150     14153     14154     14151     14150     14153     14155
     14151     14150     14153     14156     14152     14150     14153     14154
     14152     14150     14153     14155     14152     14150     14153     14156
     14153     14156     14159     14160     14153     14156     14159     14161
     14153     14156     14159     14162     14154     14153     14156     14157
     14154     14153     14156     14158     14154     14153     14156     14159
     14155     14153     14156     14157     14155     14153     14156     14158
     14155     14153     14156     14159     14157     14156     14159     14160
     14157     14156     14159     14161     14157     14156     14159     14162
     14158     14156     14159     14160     14158     14156     14159     14161
     14158     14156     14159     14162     14163     14164     14179     14180
     14163     14164     14179     14181     14163     14164     14179     14185
     14164     14163     14167     14168     14164     14163     14167     14169
     14164     14163     14167     14170     14164     14163     14171     14172
     14164     14163     14171     14173     14164     14163     14171     14174
     14164     14163     14175     14176     14164     14163     14175     14177
     14164     14163     14175     14178     14164     14179     14185     14182
     14165     14164     14163     14167     14165     14164     14163     14171
     14165     14164     14163     14175     14165     14164     14179     14180
     14165     14164     14179     14181     14165     14164     14179     14185
     14166     14164     14163     14167     14166     14164     14163     14171
     14166     14164     14163     14175     14166     14164     14179     14180
     14166     14164     14179     14181     14166     14164     14179     14185
     14167     14163     14164     14179     14167     14163     14171     14172
     14167     14163     14171     14173     14167     14163     14171     14174
     14167     14163     14175     14176     14167     14163     14175     14177
     14167     14163     14175     14178     14168     14167     14163     14171
     14168     14167     14163     14175     14169     14167     14163     14171
     14169     14167     14163     14175     14170     14167     14163     14171
     14170     14167     14163     14175     14171     14163     14164     14179
     14171     14163     14175     14176     14171     14163     14175     14177
     14171     14163     14175     14178     14172     14171     14163     14175
     14173     14171     14163     14175     14174     14171     14163     14175
     14175     14163     14164     14179     14179     14185     14182     14183
     14179     14185     14182     14184     14179     14185     14182     14186
     14180     14179     14185     14182     14181     14179     14185     14182
     14182     14186     14187     14188     14182     14186     14187     14189
     14182     14186     14187     14190     14183     14182     14186     14187
     14184     14182     14186     14187     14185     14182     14186     14187
     14186     14187     14190     14191     14186     14187     14190     14192
     14186     14187     14190     14198     14187     14190     14192     14193
     14187     14190     14198     14199     14187     14190     14198     14200
     14187     14190     14198     14201     14188     14187     14190     14191
     14188     14187     14190     14192     14188     14187     14190     14198
     14189     14187     14190     14191     14189     14187     14190     14192
     14189     14187     14190     14198     14190     14192     14193     14194
     14190     14192     14193     14195     14190     14198     14201     14202
     14191     14190     14192     14193     14191     14190     14198     14199
     14191     14190     14198     14200     14191     14190     14198     14201
     14192     14190     14198     14199     14192     14190     14198     14200
     14192     14190     14198     14201     14192     14193     14195     14196
     14192     14193     14195     14197     14192     14193     14195     14207
     14193     14192     14190     14198     14193     14195     14207     14208
     14193     14195     14207     14209     14193     14195     14207     14210
     14194     14193     14195     14196     14194     14193     14195     14197
     14194     14193     14195     14207     14195     14207     14210     14211
     14195     14207     14210     14212     14195     14207     14210     14213
     14196     14195     14207     14208     14196     14195     14207     14209
     14196     14195     14207     14210     14197     14195     14207     14208
     14197     14195     14207     14209     14197     14195     14207     14210
     14198     14201     14202     14203     14198     14201     14202     14204
     14199     14198     14201     14202     14200     14198     14201     14202
     14201     14202     14204     14205     14201     14202     14204     14206
     14201     14202     14204     14254     14202     14204     14254     14255
     14202     14204     14254     14256     14202     14204     14254     14257
     14203     14202     14204     14205     14203     14202     14204     14206
     14203     14202     14204     14254     14204     14254     14257     14258
     14204     14254     14257     14259     14204     14254     14257     14260
     14205     14204     14254     14255     14205     14204     14254     14256
     14205     14204     14254     14257     14206     14204     14254     14255
     14206     14204     14254     14256     14206     14204     14254     14257
     14207     14210     14213     14214     14207     14210     14213     14215
     14207     14210     14213     14216     14208     14207     14210     14211
     14208     14207     14210     14212     14208     14207     14210     14213
     14209     14207     14210     14211     14209     14207     14210     14212
     14209     14207     14210     14213     14210     14213     14216     14217
     14210     14213     14216     14218     14210     14213     14216     14219
     14211     14210     14213     14214     14211     14210     14213     14215
     14211     14210     14213     14216     14212     14210     14213     14214
     14212     14210     14213     14215     14212     14210     14213     14216
     14213     14216     14219     14220     14213     14216     14219     14221
     14213     14216     14219     14222     14214     14213     14216     14217
     14214     14213     14216     14218     14214     14213     14216     14219
     14215     14213     14216     14217     14215     14213     14216     14218
     14215     14213     14216     14219     14216     14219     14222     14223
     14216     14219     14222     14224     14216     14219     14222     14225
     14217     14216     14219     14220     14217     14216     14219     14221
     14217     14216     14219     14222     14218     14216     14219     14220
     14218     14216     14219     14221     14218     14216     14219     14222
     14219     14222     14225     14226     14219     14222     14225     14227
     14220     14219     14222     14223     14220     14219     14222     14224
     14220     14219     14222     14225     14221     14219     14222     14223
     14221     14219     14222     14224     14221     14219     14222     14225
     14222     14225     14227     14228     14222     14225     14227     14229
     14223     14222     14225     14226     14223     14222     14225     14227
     14224     14222     14225     14226     14224     14222     14225     14227
     14225     14227     14229     14230     14225     14227     14229     14231
     14225     14227     14229     14232     14226     14225     14227     14228
     14226     14225     14227     14229     14227     14229     14232     14233
     14227     14229     14232     14234     14227     14229     14232     14235
     14228     14227     14229     14230     14228     14227     14229     14231
     14228     14227     14229     14232     14229     14232     14235     14236
     14229     14232     14235     14237     14229     14232     14235     14238
     14230     14229     14232     14233     14230     14229     14232     14234
     14230     14229     14232     14235     14231     14229     14232     14233
     14231     14229     14232     14234     14231     14229     14232     14235
     14232     14235     14238     14239     14232     14235     14238     14240
     14232     14235     14238     14241     14233     14232     14235     14236
     14233     14232     14235     14237     14233     14232     14235     14238
     14234     14232     14235     14236     14234     14232     14235     14237
     14234     14232     14235     14238     14235     14238     14241     14242
     14235     14238     14241     14243     14235     14238     14241     14244
     14236     14235     14238     14239     14236     14235     14238     14240
     14236     14235     14238     14241     14237     14235     14238     14239
     14237     14235     14238     14240     14237     14235     14238     14241
     14238     14241     14244     14245     14238     14241     14244     14246
     14238     14241     14244     14247     14239     14238     14241     14242
     14239     14238     14241     14243     14239     14238     14241     14244
     14240     14238     14241     14242     14240     14238     14241     14243
     14240     14238     14241     14244     14241     14244     14247     14248
     14241     14244     14247     14249     14241     14244     14247     14250
     14242     14241     14244     14245     14242     14241     14244     14246
     14242     14241     14244     14247     14243     14241     14244     14245
     14243     14241     14244     14246     14243     14241     14244     14247
     14244     14247     14250     14251     14244     14247     14250     14252
     14244     14247     14250     14253     14245     14244     14247     14248
     14245     14244     14247     14249     14245     14244     14247     14250
     14246     14244     14247     14248     14246     14244     14247     14249
     14246     14244     14247     14250     14248     14247     14250     14251
     14248     14247     14250     14252     14248     14247     14250     14253
     14249     14247     14250     14251     14249     14247     14250     14252
     14249     14247     14250     14253     14254     14257     14260     14261
     14254     14257     14260     14262     14254     14257     14260     14263
     14255     14254     14257     14258     14255     14254     14257     14259
     14255     14254     14257     14260     14256     14254     14257     14258
     14256     14254     14257     14259     14256     14254     14257     14260
     14257     14260     14263     14264     14257     14260     14263     14265
     14257     14260     14263     14266     14258     14257     14260     14261
     14258     14257     14260     14262     14258     14257     14260     14263
     14259     14257     14260     14261     14259     14257     14260     14262
     14259     14257     14260     14263     14260     14263     14266     14267
     14260     14263     14266     14268     14260     14263     14266     14269
     14261     14260     14263     14264     14261     14260     14263     14265
     14261     14260     14263     14266     14262     14260     14263     14264
     14262     14260     14263     14265     14262     14260     14263     14266
     14263     14266     14269     14270     14263     14266     14269     14271
     14263     14266     14269     14272     14264     14263     14266     14267
     14264     14263     14266     14268     14264     14263     14266     14269
     14265     14263     14266     14267     14265     14263     14266     14268
     14265     14263     14266     14269     14266     14269     14272     14273
     14266     14269     14272     14274     14267     14266     14269     14270
     14267     14266     14269     14271     14267     14266     14269     14272
     14268     14266     14269     14270     14268     14266     14269     14271
     14268     14266     14269     14272     14269     14272     14274     14275
     14269     14272     14274     14276     14270     14269     14272     14273
     14270     14269     14272     14274     14271     14269     14272     14273
     14271     14269     14272     14274     14272     14274     14276     14277
     14272     14274     14276     14278     14272     14274     14276     14279
     14273     14272     14274     14275     14273     14272     14274     14276
     14274     14276     14279     14280     14274     14276     14279     14281
     14274     14276     14279     14282     14275     14274     14276     14277
     14275     14274     14276     14278     14275     14274     14276     14279
     14276     14279     14282     14283     14276     14279     14282     14284
     14276     14279     14282     14285     14277     14276     14279     14280
     14277     14276     14279     14281     14277     14276     14279     14282
     14278     14276     14279     14280     14278     14276     14279     14281
     14278     14276     14279     14282     14279     14282     14285     14286
     14279     14282     14285     14287     14279     14282     14285     14288
     14280     14279     14282     14283     14280     14279     14282     14284
     14280     14279     14282     14285     14281     14279     14282     14283
     14281     14279     14282     14284     14281     14279     14282     14285
     14282     14285     14288     14289     14282     14285     14288     14290
     14282     14285     14288     14291     14283     14282     14285     14286
     14283     14282     14285     14287     14283     14282     14285     14288
     14284     14282     14285     14286     14284     14282     14285     14287
     14284     14282     14285     14288     14285     14288     14291     14292
     14285     14288     14291     14293     14285     14288     14291     14294
     14286     14285     14288     14289     14286     14285     14288     14290
     14286     14285     14288     14291     14287     14285     14288     14289
     14287     14285     14288     14290     14287     14285     14288     14291
     14288     14291     14294     14295     14288     14291     14294     14296
     14288     14291     14294     14297     14289     14288     14291     14292
     14289     14288     14291     14293     14289     14288     14291     14294
     14290     14288     14291     14292     14290     14288     14291     14293
     14290     14288     14291     14294     14291     14294     14297     14298
     14291     14294     14297     14299     14291     14294     14297     14300
     14292     14291     14294     14295     14292     14291     14294     14296
     14292     14291     14294     14297     14293     14291     14294     14295
     14293     14291     14294     14296     14293     14291     14294     14297
     14295     14294     14297     14298     14295     14294     14297     14299
     14295     14294     14297     14300     14296     14294     14297     14298
     14296     14294     14297     14299     14296     14294     14297     14300
     14301     14302     14317     14318     14301     14302     14317     14319
     14301     14302     14317     14323     14302     14301     14305     14306
     14302     14301     14305     14307     14302     14301     14305     14308
     14302     14301     14309     14310     14302     14301     14309     14311
     14302     14301     14309     14312     14302     14301     14313     14314
     14302     14301     14313     14315     14302     14301     14313     14316
     14302     14317     14323     14320     14303     14302     14301     14305
     14303     14302     14301     14309     14303     14302     14301     14313
     14303     14302     14317     14318     14303     14302     14317     14319
     14303     14302     14317     14323     14304     14302     14301     14305
     14304     14302     14301     14309     14304     14302     14301     14313
     14304     14302     14317     14318     14304     14302     14317     14319
     14304     14302     14317     14323     14305     14301     14302     14317
     14305     14301     14309     14310     14305     14301     14309     14311
     14305     14301     14309     14312     14305     14301     14313     14314
     14305     14301     14313     14315     14305     14301     14313     14316
     14306     14305     14301     14309     14306     14305     14301     14313
     14307     14305     14301     14309     14307     14305     14301     14313
     14308     14305     14301     14309     14308     14305     14301     14313
     14309     14301     14302     14317     14309     14301     14313     14314
     14309     14301     14313     14315     14309     14301     14313     14316
     14310     14309     14301     14313     14311     14309     14301     14313
     14312     14309     14301     14313     14313     14301     14302     14317
     14317     14323     14320     14321     14317     14323     14320     14322
     14317     14323     14320     14324     14318     14317     14323     14320
     14319     14317     14323     14320     14320     14324     14325     14326
     14320     14324     14325     14327     14320     14324     14325     14328
     14321     14320     14324     14325     14322     14320     14324     14325
     14323     14320     14324     14325     14324     14325     14328     14329
     14324     14325     14328     14330     14324     14325     14328     14336
     14325     14328     14330     14331     14325     14328     14336     14337
     14325     14328     14336     14338     14325     14328     14336     14339
     14326     14325     14328     14329     14326     14325     14328     14330
     14326     14325     14328     14336     14327     14325     14328     14329
     14327     14325     14328     14330     14327     14325     14328     14336
     14328     14330     14331     14332     14328     14330     14331     14333
     14328     14336     14339     14340     14329     14328     14330     14331
     14329     14328     14336     14337     14329     14328     14336     14338
     14329     14328     14336     14339     14330     14328     14336     14337
     14330     14328     14336     14338     14330     14328     14336     14339
     14330     14331     14333     14334     14330     14331     14333     14335
     14330     14331     14333     14345     14331     14330     14328     14336
     14331     14333     14345     14346     14331     14333     14345     14347
     14331     14333     14345     14348     14332     14331     14333     14334
     14332     14331     14333     14335     14332     14331     14333     14345
     14333     14345     14348     14349     14333     14345     14348     14350
     14333     14345     14348     14351     14334     14333     14345     14346
     14334     14333     14345     14347     14334     14333     14345     14348
     14335     14333     14345     14346     14335     14333     14345     14347
     14335     14333     14345     14348     14336     14339     14340     14341
     14336     14339     14340     14342     14337     14336     14339     14340
     14338     14336     14339     14340     14339     14340     14342     14343
     14339     14340     14342     14344     14339     14340     14342     14392
     14340     14342     14392     14393     14340     14342     14392     14394
     14340     14342     14392     14395     14341     14340     14342     14343
     14341     14340     14342     14344     14341     14340     14342     14392
     14342     14392     14395     14396     14342     14392     14395     14397
     14342     14392     14395     14398     14343     14342     14392     14393
     14343     14342     14392     14394     14343     14342     14392     14395
     14344     14342     14392     14393     14344     14342     14392     14394
     14344     14342     14392     14395     14345     14348     14351     14352
     14345     14348     14351     14353     14345     14348     14351     14354
     14346     14345     14348     14349     14346     14345     14348     14350
     14346     14345     14348     14351     14347     14345     14348     14349
     14347     14345     14348     14350     14347     14345     14348     14351
     14348     14351     14354     14355     14348     14351     14354     14356
     14348     14351     14354     14357     14349     14348     14351     14352
     14349     14348     14351     14353     14349     14348     14351     14354
     14350     14348     14351     14352     14350     14348     14351     14353
     14350     14348     14351     14354     14351     14354     14357     14358
     14351     14354     14357     14359     14351     14354     14357     14360
     14352     14351     14354     14355     14352     14351     14354     14356
     14352     14351     14354     14357     14353     14351     14354     14355
     14353     14351     14354     14356     14353     14351     14354     14357
     14354     14357     14360     14361     14354     14357     14360     14362
     14354     14357     14360     14363     14355     14354     14357     14358
     14355     14354     14357     14359     14355     14354     14357     14360
     14356     14354     14357     14358     14356     14354     14357     14359
     14356     14354     14357     14360     14357     14360     14363     14364
     14357     14360     14363     14365     14358     14357     14360     14361
     14358     14357     14360     14362     14358     14357     14360     14363
     14359     14357     14360     14361     14359     14357     14360     14362
     14359     14357     14360     14363     14360     14363     14365     14366
     14360     14363     14365     14367     14361     14360     14363     14364
     14361     14360     14363     14365     14362     14360     14363     14364
     14362     14360     14363     14365     14363     14365     14367     14368
     14363     14365     14367     14369     14363     14365     14367     14370
     14364     14363     14365     14366     14364     14363     14365     14367
     14365     14367     14370     14371     14365     14367     14370     14372
     14365     14367     14370     14373     14366     14365     14367     14368
     14366     14365     14367     14369     14366     14365     14367     14370
     14367     14370     14373     14374     14367     14370     14373     14375
     14367     14370     14373     14376     14368     14367     14370     14371
     14368     14367     14370     14372     14368     14367     14370     14373
     14369     14367     14370     14371     14369     14367     14370     14372
     14369     14367     14370     14373     14370     14373     14376     14377
     14370     14373     14376     14378     14370     14373     14376     14379
     14371     14370     14373     14374     14371     14370     14373     14375
     14371     14370     14373     14376     14372     14370     14373     14374
     14372     14370     14373     14375     14372     14370     14373     14376
     14373     14376     14379     14380     14373     14376     14379     14381
     14373     14376     14379     14382     14374     14373     14376     14377
     14374     14373     14376     14378     14374     14373     14376     14379
     14375     14373     14376     14377     14375     14373     14376     14378
     14375     14373     14376     14379     14376     14379     14382     14383
     14376     14379     14382     14384     14376     14379     14382     14385
     14377     14376     14379     14380     14377     14376     14379     14381
     14377     14376     14379     14382     14378     14376     14379     14380
     14378     14376     14379     14381     14378     14376     14379     14382
     14379     14382     14385     14386     14379     14382     14385     14387
     14379     14382     14385     14388     14380     14379     14382     14383
     14380     14379     14382     14384     14380     14379     14382     14385
     14381     14379     14382     14383     14381     14379     14382     14384
     14381     14379     14382     14385     14382     14385     14388     14389
     14382     14385     14388     14390     14382     14385     14388     14391
     14383     14382     14385     14386     14383     14382     14385     14387
     14383     14382     14385     14388     14384     14382     14385     14386
     14384     14382     14385     14387     14384     14382     14385     14388
     14386     14385     14388     14389     14386     14385     14388     14390
     14386     14385     14388     14391     14387     14385     14388     14389
     14387     14385     14388     14390     14387     14385     14388     14391
     14392     14395     14398     14399     14392     14395     14398     14400
     14392     14395     14398     14401     14393     14392     14395     14396
     14393     14392     14395     14397     14393     14392     14395     14398
     14394     14392     14395     14396     14394     14392     14395     14397
     14394     14392     14395     14398     14395     14398     14401     14402
     14395     14398     14401     14403     14395     14398     14401     14404
     14396     14395     14398     14399     14396     14395     14398     14400
     14396     14395     14398     14401     14397     14395     14398     14399
     14397     14395     14398     14400     14397     14395     14398     14401
     14398     14401     14404     14405     14398     14401     14404     14406
     14398     14401     14404     14407     14399     14398     14401     14402
     14399     14398     14401     14403     14399     14398     14401     14404
     14400     14398     14401     14402     14400     14398     14401     14403
     14400     14398     14401     14404     14401     14404     14407     14408
     14401     14404     14407     14409     14401     14404     14407     14410
     14402     14401     14404     14405     14402     14401     14404     14406
     14402     14401     14404     14407     14403     14401     14404     14405
     14403     14401     14404     14406     14403     14401     14404     14407
     14404     14407     14410     14411     14404     14407     14410     14412
     14405     14404     14407     14408     14405     14404     14407     14409
     14405     14404     14407     14410     14406     14404     14407     14408
     14406     14404     14407     14409     14406     14404     14407     14410
     14407     14410     14412     14413     14407     14410     14412     14414
     14408     14407     14410     14411     14408     14407     14410     14412
     14409     14407     14410     14411     14409     14407     14410     14412
     14410     14412     14414     14415     14410     14412     14414     14416
     14410     14412     14414     14417     14411     14410     14412     14413
     14411     14410     14412     14414     14412     14414     14417     14418
     14412     14414     14417     14419     14412     14414     14417     14420
     14413     14412     14414     14415     14413     14412     14414     14416
     14413     14412     14414     14417     14414     14417     14420     14421
     14414     14417     14420     14422     14414     14417     14420     14423
     14415     14414     14417     14418     14415     14414     14417     14419
     14415     14414     14417     14420     14416     14414     14417     14418
     14416     14414     14417     14419     14416     14414     14417     14420
     14417     14420     14423     14424     14417     14420     14423     14425
     14417     14420     14423     14426     14418     14417     14420     14421
     14418     14417     14420     14422     14418     14417     14420     14423
     14419     14417     14420     14421     14419     14417     14420     14422
     14419     14417     14420     14423     14420     14423     14426     14427
     14420     14423     14426     14428     14420     14423     14426     14429
     14421     14420     14423     14424     14421     14420     14423     14425
     14421     14420     14423     14426     14422     14420     14423     14424
     14422     14420     14423     14425     14422     14420     14423     14426
     14423     14426     14429     14430     14423     14426     14429     14431
     14423     14426     14429     14432     14424     14423     14426     14427
     14424     14423     14426     14428     14424     14423     14426     14429
     14425     14423     14426     14427     14425     14423     14426     14428
     14425     14423     14426     14429     14426     14429     14432     14433
     14426     14429     14432     14434     14426     14429     14432     14435
     14427     14426     14429     14430     14427     14426     14429     14431
     14427     14426     14429     14432     14428     14426     14429     14430
     14428     14426     14429     14431     14428     14426     14429     14432
     14429     14432     14435     14436     14429     14432     14435     14437
     14429     14432     14435     14438     14430     14429     14432     14433
     14430     14429     14432     14434     14430     14429     14432     14435
     14431     14429     14432     14433     14431     14429     14432     14434
     14431     14429     14432     14435     14433     14432     14435     14436
     14433     14432     14435     14437     14433     14432     14435     14438
     14434     14432     14435     14436     14434     14432     14435     14437
     14434     14432     14435     14438     14439     14440     14455     14456
     14439     14440     14455     14457     14439     14440     14455     14461
     14440     14439     14443     14444     14440     14439     14443     14445
     14440     14439     14443     14446     14440     14439     14447     14448
     14440     14439     14447     14449     14440     14439     14447     14450
     14440     14439     14451     14452     14440     14439     14451     14453
     14440     14439     14451     14454     14440     14455     14461     14458
     14441     14440     14439     14443     14441     14440     14439     14447
     14441     14440     14439     14451     14441     14440     14455     14456
     14441     14440     14455     14457     14441     14440     14455     14461
     14442     14440     14439     14443     14442     14440     14439     14447
     14442     14440     14439     14451     14442     14440     14455     14456
     14442     14440     14455     14457     14442     14440     14455     14461
     14443     14439     14440     14455     14443     14439     14447     14448
     14443     14439     14447     14449     14443     14439     14447     14450
     14443     14439     14451     14452     14443     14439     14451     14453
     14443     14439     14451     14454     14444     14443     14439     14447
     14444     14443     14439     14451     14445     14443     14439     14447
     14445     14443     14439     14451     14446     14443     14439     14447
     14446     14443     14439     14451     14447     14439     14440     14455
     14447     14439     14451     14452     14447     14439     14451     14453
     14447     14439     14451     14454     14448     14447     14439     14451
     14449     14447     14439     14451     14450     14447     14439     14451
     14451     14439     14440     14455     14455     14461     14458     14459
     14455     14461     14458     14460     14455     14461     14458     14462
     14456     14455     14461     14458     14457     14455     14461     14458
     14458     14462     14463     14464     14458     14462     14463     14465
     14458     14462     14463     14466     14459     14458     14462     14463
     14460     14458     14462     14463     14461     14458     14462     14463
     14462     14463     14466     14467     14462     14463     14466     14468
     14462     14463     14466     14474     14463     14466     14468     14469
     14463     14466     14474     14475     14463     14466     14474     14476
     14463     14466     14474     14477     14464     14463     14466     14467
     14464     14463     14466     14468     14464     14463     14466     14474
     14465     14463     14466     14467     14465     14463     14466     14468
     14465     14463     14466     14474     14466     14468     14469     14470
     14466     14468     14469     14471     14466     14474     14477     14478
     14467     14466     14468     14469     14467     14466     14474     14475
     14467     14466     14474     14476     14467     14466     14474     14477
     14468     14466     14474     14475     14468     14466     14474     14476
     14468     14466     14474     14477     14468     14469     14471     14472
     14468     14469     14471     14473     14468     14469     14471     14483
     14469     14468     14466     14474     14469     14471     14483     14484
     14469     14471     14483     14485     14469     14471     14483     14486
     14470     14469     14471     14472     14470     14469     14471     14473
     14470     14469     14471     14483     14471     14483     14486     14487
     14471     14483     14486     14488     14471     14483     14486     14489
     14472     14471     14483     14484     14472     14471     14483     14485
     14472     14471     14483     14486     14473     14471     14483     14484
     14473     14471     14483     14485     14473     14471     14483     14486
     14474     14477     14478     14479     14474     14477     14478     14480
     14475     14474     14477     14478     14476     14474     14477     14478
     14477     14478     14480     14481     14477     14478     14480     14482
     14477     14478     14480     14530     14478     14480     14530     14531
     14478     14480     14530     14532     14478     14480     14530     14533
     14479     14478     14480     14481     14479     14478     14480     14482
     14479     14478     14480     14530     14480     14530     14533     14534
     14480     14530     14533     14535     14480     14530     14533     14536
     14481     14480     14530     14531     14481     14480     14530     14532
     14481     14480     14530     14533     14482     14480     14530     14531
     14482     14480     14530     14532     14482     14480     14530     14533
     14483     14486     14489     14490     14483     14486     14489     14491
     14483     14486     14489     14492     14484     14483     14486     14487
     14484     14483     14486     14488     14484     14483     14486     14489
     14485     14483     14486     14487     14485     14483     14486     14488
     14485     14483     14486     14489     14486     14489     14492     14493
     14486     14489     14492     14494     14486     14489     14492     14495
     14487     14486     14489     14490     14487     14486     14489     14491
     14487     14486     14489     14492     14488     14486     14489     14490
     14488     14486     14489     14491     14488     14486     14489     14492
     14489     14492     14495     14496     14489     14492     14495     14497
     14489     14492     14495     14498     14490     14489     14492     14493
     14490     14489     14492     14494     14490     14489     14492     14495
     14491     14489     14492     14493     14491     14489     14492     14494
     14491     14489     14492     14495     14492     14495     14498     14499
     14492     14495     14498     14500     14492     14495     14498     14501
     14493     14492     14495     14496     14493     14492     14495     14497
     14493     14492     14495     14498     14494     14492     14495     14496
     14494     14492     14495     14497     14494     14492     14495     14498
     14495     14498     14501     14502     14495     14498     14501     14503
     14496     14495     14498     14499     14496     14495     14498     14500
     14496     14495     14498     14501     14497     14495     14498     14499
     14497     14495     14498     14500     14497     14495     14498     14501
     14498     14501     14503     14504     14498     14501     14503     14505
     14499     14498     14501     14502     14499     14498     14501     14503
     14500     14498     14501     14502     14500     14498     14501     14503
     14501     14503     14505     14506     14501     14503     14505     14507
     14501     14503     14505     14508     14502     14501     14503     14504
     14502     14501     14503     14505     14503     14505     14508     14509
     14503     14505     14508     14510     14503     14505     14508     14511
     14504     14503     14505     14506     14504     14503     14505     14507
     14504     14503     14505     14508     14505     14508     14511     14512
     14505     14508     14511     14513     14505     14508     14511     14514
     14506     14505     14508     14509     14506     14505     14508     14510
     14506     14505     14508     14511     14507     14505     14508     14509
     14507     14505     14508     14510     14507     14505     14508     14511
     14508     14511     14514     14515     14508     14511     14514     14516
     14508     14511     14514     14517     14509     14508     14511     14512
     14509     14508     14511     14513     14509     14508     14511     14514
     14510     14508     14511     14512     14510     14508     14511     14513
     14510     14508     14511     14514     14511     14514     14517     14518
     14511     14514     14517     14519     14511     14514     14517     14520
     14512     14511     14514     14515     14512     14511     14514     14516
     14512     14511     14514     14517     14513     14511     14514     14515
     14513     14511     14514     14516     14513     14511     14514     14517
     14514     14517     14520     14521     14514     14517     14520     14522
     14514     14517     14520     14523     14515     14514     14517     14518
     14515     14514     14517     14519     14515     14514     14517     14520
     14516     14514     14517     14518     14516     14514     14517     14519
     14516     14514     14517     14520     14517     14520     14523     14524
     14517     14520     14523     14525     14517     14520     14523     14526
     14518     14517     14520     14521     14518     14517     14520     14522
     14518     14517     14520     14523     14519     14517     14520     14521
     14519     14517     14520     14522     14519     14517     14520     14523
     14520     14523     14526     14527     14520     14523     14526     14528
     14520     14523     14526     14529     14521     14520     14523     14524
     14521     14520     14523     14525     14521     14520     14523     14526
     14522     14520     14523     14524     14522     14520     14523     14525
     14522     14520     14523     14526     14524     14523     14526     14527
     14524     14523     14526     14528     14524     14523     14526     14529
     14525     14523     14526     14527     14525     14523     14526     14528
     14525     14523     14526     14529     14530     14533     14536     14537
     14530     14533     14536     14538     14530     14533     14536     14539
     14531     14530     14533     14534     14531     14530     14533     14535
     14531     14530     14533     14536     14532     14530     14533     14534
     14532     14530     14533     14535     14532     14530     14533     14536
     14533     14536     14539     14540     14533     14536     14539     14541
     14533     14536     14539     14542     14534     14533     14536     14537
     14534     14533     14536     14538     14534     14533     14536     14539
     14535     14533     14536     14537     14535     14533     14536     14538
     14535     14533     14536     14539     14536     14539     14542     14543
     14536     14539     14542     14544     14536     14539     14542     14545
     14537     14536     14539     14540     14537     14536     14539     14541
     14537     14536     14539     14542     14538     14536     14539     14540
     14538     14536     14539     14541     14538     14536     14539     14542
     14539     14542     14545     14546     14539     14542     14545     14547
     14539     14542     14545     14548     14540     14539     14542     14543
     14540     14539     14542     14544     14540     14539     14542     14545
     14541     14539     14542     14543     14541     14539     14542     14544
     14541     14539     14542     14545     14542     14545     14548     14549
     14542     14545     14548     14550     14543     14542     14545     14546
     14543     14542     14545     14547     14543     14542     14545     14548
     14544     14542     14545     14546     14544     14542     14545     14547
     14544     14542     14545     14548     14545     14548     14550     14551
     14545     14548     14550     14552     14546     14545     14548     14549
     14546     14545     14548     14550     14547     14545     14548     14549
     14547     14545     14548     14550     14548     14550     14552     14553
     14548     14550     14552     14554     14548     14550     14552     14555
     14549     14548     14550     14551     14549     14548     14550     14552
     14550     14552     14555     14556     14550     14552     14555     14557
     14550     14552     14555     14558     14551     14550     14552     14553
     14551     14550     14552     14554     14551     14550     14552     14555
     14552     14555     14558     14559     14552     14555     14558     14560
     14552     14555     14558     14561     14553     14552     14555     14556
     14553     14552     14555     14557     14553     14552     14555     14558
     14554     14552     14555     14556     14554     14552     14555     14557
     14554     14552     14555     14558     14555     14558     14561     14562
     14555     14558     14561     14563     14555     14558     14561     14564
     14556     14555     14558     14559     14556     14555     14558     14560
     14556     14555     14558     14561     14557     14555     14558     14559
     14557     14555     14558     14560     14557     14555     14558     14561
     14558     14561     14564     14565     14558     14561     14564     14566
     14558     14561     14564     14567     14559     14558     14561     14562
     14559     14558     14561     14563     14559     14558     14561     14564
     14560     14558     14561     14562     14560     14558     14561     14563
     14560     14558     14561     14564     14561     14564     14567     14568
     14561     14564     14567     14569     14561     14564     14567     14570
     14562     14561     14564     14565     14562     14561     14564     14566
     14562     14561     14564     14567     14563     14561     14564     14565
     14563     14561     14564     14566     14563     14561     14564     14567
     14564     14567     14570     14571     14564     14567     14570     14572
     14564     14567     14570     14573     14565     14564     14567     14568
     14565     14564     14567     14569     14565     14564     14567     14570
     14566     14564     14567     14568     14566     14564     14567     14569
     14566     14564     14567     14570     14567     14570     14573     14574
     14567     14570     14573     14575     14567     14570     14573     14576
     14568     14567     14570     14571     14568     14567     14570     14572
     14568     14567     14570     14573     14569     14567     14570     14571
     14569     14567     14570     14572     14569     14567     14570     14573
     14571     14570     14573     14574     14571     14570     14573     14575
     14571     14570     14573     14576     14572     14570     14573     14574
     14572     14570     14573     14575     14572     14570     14573     14576
     14577     14578     14593     14594     14577     14578     14593     14595
     14577     14578     14593     14599     14578     14577     14581     14582
     14578     14577     14581     14583     14578     14577     14581     14584
     14578     14577     14585     14586     14578     14577     14585     14587
     14578     14577     14585     14588     14578     14577     14589     14590
     14578     14577     14589     14591     14578     14577     14589     14592
     14578     14593     14599     14596     14579     14578     14577     14581
     14579     14578     14577     14585     14579     14578     14577     14589
     14579     14578     14593     14594     14579     14578     14593     14595
     14579     14578     14593     14599     14580     14578     14577     14581
     14580     14578     14577     14585     14580     14578     14577     14589
     14580     14578     14593     14594     14580     14578     14593     14595
     14580     14578     14593     14599     14581     14577     14578     14593
     14581     14577     14585     14586     14581     14577     14585     14587
     14581     14577     14585     14588     14581     14577     14589     14590
     14581     14577     14589     14591     14581     14577     14589     14592
     14582     14581     14577     14585     14582     14581     14577     14589
     14583     14581     14577     14585     14583     14581     14577     14589
     14584     14581     14577     14585     14584     14581     14577     14589
     14585     14577     14578     14593     14585     14577     14589     14590
     14585     14577     14589     14591     14585     14577     14589     14592
     14586     14585     14577     14589     14587     14585     14577     14589
     14588     14585     14577     14589     14589     14577     14578     14593
     14593     14599     14596     14597     14593     14599     14596     14598
     14593     14599     14596     14600     14594     14593     14599     14596
     14595     14593     14599     14596     14596     14600     14601     14602
     14596     14600     14601     14603     14596     14600     14601     14604
     14597     14596     14600     14601     14598     14596     14600     14601
     14599     14596     14600     14601     14600     14601     14604     14605
     14600     14601     14604     14606     14600     14601     14604     14612
     14601     14604     14606     14607     14601     14604     14612     14613
     14601     14604     14612     14614     14601     14604     14612     14615
     14602     14601     14604     14605     14602     14601     14604     14606
     14602     14601     14604     14612     14603     14601     14604     14605
     14603     14601     14604     14606     14603     14601     14604     14612
     14604     14606     14607     14608     14604     14606     14607     14609
     14604     14612     14615     14616     14605     14604     14606     14607
     14605     14604     14612     14613     14605     14604     14612     14614
     14605     14604     14612     14615     14606     14604     14612     14613
     14606     14604     14612     14614     14606     14604     14612     14615
     14606     14607     14609     14610     14606     14607     14609     14611
     14606     14607     14609     14621     14607     14606     14604     14612
     14607     14609     14621     14622     14607     14609     14621     14623
     14607     14609     14621     14624     14608     14607     14609     14610
     14608     14607     14609     14611     14608     14607     14609     14621
     14609     14621     14624     14625     14609     14621     14624     14626
     14609     14621     14624     14627     14610     14609     14621     14622
     14610     14609     14621     14623     14610     14609     14621     14624
     14611     14609     14621     14622     14611     14609     14621     14623
     14611     14609     14621     14624     14612     14615     14616     14617
     14612     14615     14616     14618     14613     14612     14615     14616
     14614     14612     14615     14616     14615     14616     14618     14619
     14615     14616     14618     14620     14615     14616     14618     14668
     14616     14618     14668     14669     14616     14618     14668     14670
     14616     14618     14668     14671     14617     14616     14618     14619
     14617     14616     14618     14620     14617     14616     14618     14668
     14618     14668     14671     14672     14618     14668     14671     14673
     14618     14668     14671     14674     14619     14618     14668     14669
     14619     14618     14668     14670     14619     14618     14668     14671
     14620     14618     14668     14669     14620     14618     14668     14670
     14620     14618     14668     14671     14621     14624     14627     14628
     14621     14624     14627     14629     14621     14624     14627     14630
     14622     14621     14624     14625     14622     14621     14624     14626
     14622     14621     14624     14627     14623     14621     14624     14625
     14623     14621     14624     14626     14623     14621     14624     14627
     14624     14627     14630     14631     14624     14627     14630     14632
     14624     14627     14630     14633     14625     14624     14627     14628
     14625     14624     14627     14629     14625     14624     14627     14630
     14626     14624     14627     14628     14626     14624     14627     14629
     14626     14624     14627     14630     14627     14630     14633     14634
     14627     14630     14633     14635     14627     14630     14633     14636
     14628     14627     14630     14631     14628     14627     14630     14632
     14628     14627     14630     14633     14629     14627     14630     14631
     14629     14627     14630     14632     14629     14627     14630     14633
     14630     14633     14636     14637     14630     14633     14636     14638
     14630     14633     14636     14639     14631     14630     14633     14634
     14631     14630     14633     14635     14631     14630     14633     14636
     14632     14630     14633     14634     14632     14630     14633     14635
     14632     14630     14633     14636     14633     14636     14639     14640
     14633     14636     14639     14641     14634     14633     14636     14637
     14634     14633     14636     14638     14634     14633     14636     14639
     14635     14633     14636     14637     14635     14633     14636     14638
     14635     14633     14636     14639     14636     14639     14641     14642
     14636     14639     14641     14643     14637     14636     14639     14640
     14637     14636     14639     14641     14638     14636     14639     14640
     14638     14636     14639     14641     14639     14641     14643     14644
     14639     14641     14643     14645     14639     14641     14643     14646
     14640     14639     14641     14642     14640     14639     14641     14643
     14641     14643     14646     14647     14641     14643     14646     14648
     14641     14643     14646     14649     14642     14641     14643     14644
     14642     14641     14643     14645     14642     14641     14643     14646
     14643     14646     14649     14650     14643     14646     14649     14651
     14643     14646     14649     14652     14644     14643     14646     14647
     14644     14643     14646     14648     14644     14643     14646     14649
     14645     14643     14646     14647     14645     14643     14646     14648
     14645     14643     14646     14649     14646     14649     14652     14653
     14646     14649     14652     14654     14646     14649     14652     14655
     14647     14646     14649     14650     14647     14646     14649     14651
     14647     14646     14649     14652     14648     14646     14649     14650
     14648     14646     14649     14651     14648     14646     14649     14652
     14649     14652     14655     14656     14649     14652     14655     14657
     14649     14652     14655     14658     14650     14649     14652     14653
     14650     14649     14652     14654     14650     14649     14652     14655
     14651     14649     14652     14653     14651     14649     14652     14654
     14651     14649     14652     14655     14652     14655     14658     14659
     14652     14655     14658     14660     14652     14655     14658     14661
     14653     14652     14655     14656     14653     14652     14655     14657
     14653     14652     14655     14658     14654     14652     14655     14656
     14654     14652     14655     14657     14654     14652     14655     14658
     14655     14658     14661     14662     14655     14658     14661     14663
     14655     14658     14661     14664     14656     14655     14658     14659
     14656     14655     14658     14660     14656     14655     14658     14661
     14657     14655     14658     14659     14657     14655     14658     14660
     14657     14655     14658     14661     14658     14661     14664     14665
     14658     14661     14664     14666     14658     14661     14664     14667
     14659     14658     14661     14662     14659     14658     14661     14663
     14659     14658     14661     14664     14660     14658     14661     14662
     14660     14658     14661     14663     14660     14658     14661     14664
     14662     14661     14664     14665     14662     14661     14664     14666
     14662     14661     14664     14667     14663     14661     14664     14665
     14663     14661     14664     14666     14663     14661     14664     14667
     14668     14671     14674     14675     14668     14671     14674     14676
     14668     14671     14674     14677     14669     14668     14671     14672
     14669     14668     14671     14673     14669     14668     14671     14674
     14670     14668     14671     14672     14670     14668     14671     14673
     14670     14668     14671     14674     14671     14674     14677     14678
     14671     14674     14677     14679     14671     14674     14677     14680
     14672     14671     14674     14675     14672     14671     14674     14676
     14672     14671     14674     14677     14673     14671     14674     14675
     14673     14671     14674     14676     14673     14671     14674     14677
     14674     14677     14680     14681     14674     14677     14680     14682
     14674     14677     14680     14683     14675     14674     14677     14678
     14675     14674     14677     14679     14675     14674     14677     14680
     14676     14674     14677     14678     14676     14674     14677     14679
     14676     14674     14677     14680     14677     14680     14683     14684
     14677     14680     14683     14685     14677     14680     14683     14686
     14678     14677     14680     14681     14678     14677     14680     14682
     14678     14677     14680     14683     14679     14677     14680     14681
     14679     14677     14680     14682     14679     14677     14680     14683
     14680     14683     14686     14687     14680     14683     14686     14688
     14681     14680     14683     14684     14681     14680     14683     14685
     14681     14680     14683     14686     14682     14680     14683     14684
     14682     14680     14683     14685     14682     14680     14683     14686
     14683     14686     14688     14689     14683     14686     14688     14690
     14684     14683     14686     14687     14684     14683     14686     14688
     14685     14683     14686     14687     14685     14683     14686     14688
     14686     14688     14690     14691     14686     14688     14690     14692
     14686     14688     14690     14693     14687     14686     14688     14689
     14687     14686     14688     14690     14688     14690     14693     14694
     14688     14690     14693     14695     14688     14690     14693     14696
     14689     14688     14690     14691     14689     14688     14690     14692
     14689     14688     14690     14693     14690     14693     14696     14697
     14690     14693     14696     14698     14690     14693     14696     14699
     14691     14690     14693     14694     14691     14690     14693     14695
     14691     14690     14693     14696     14692     14690     14693     14694
     14692     14690     14693     14695     14692     14690     14693     14696
     14693     14696     14699     14700     14693     14696     14699     14701
     14693     14696     14699     14702     14694     14693     14696     14697
     14694     14693     14696     14698     14694     14693     14696     14699
     14695     14693     14696     14697     14695     14693     14696     14698
     14695     14693     14696     14699     14696     14699     14702     14703
     14696     14699     14702     14704     14696     14699     14702     14705
     14697     14696     14699     14700     14697     14696     14699     14701
     14697     14696     14699     14702     14698     14696     14699     14700
     14698     14696     14699     14701     14698     14696     14699     14702
     14699     14702     14705     14706     14699     14702     14705     14707
     14699     14702     14705     14708     14700     14699     14702     14703
     14700     14699     14702     14704     14700     14699     14702     14705
     14701     14699     14702     14703     14701     14699     14702     14704
     14701     14699     14702     14705     14702     14705     14708     14709
     14702     14705     14708     14710     14702     14705     14708     14711
     14703     14702     14705     14706     14703     14702     14705     14707
     14703     14702     14705     14708     14704     14702     14705     14706
     14704     14702     14705     14707     14704     14702     14705     14708
     14705     14708     14711     14712     14705     14708     14711     14713
     14705     14708     14711     14714     14706     14705     14708     14709
     14706     14705     14708     14710     14706     14705     14708     14711
     14707     14705     14708     14709     14707     14705     14708     14710
     14707     14705     14708     14711     14709     14708     14711     14712
     14709     14708     14711     14713     14709     14708     14711     14714
     14710     14708     14711     14712     14710     14708     14711     14713
     14710     14708     14711     14714     14715     14716     14731     14732
     14715     14716     14731     14733     14715     14716     14731     14737
     14716     14715     14719     14720     14716     14715     14719     14721
     14716     14715     14719     14722     14716     14715     14723     14724
     14716     14715     14723     14725     14716     14715     14723     14726
     14716     14715     14727     14728     14716     14715     14727     14729
     14716     14715     14727     14730     14716     14731     14737     14734
     14717     14716     14715     14719     14717     14716     14715     14723
     14717     14716     14715     14727     14717     14716     14731     14732
     14717     14716     14731     14733     14717     14716     14731     14737
     14718     14716     14715     14719     14718     14716     14715     14723
     14718     14716     14715     14727     14718     14716     14731     14732
     14718     14716     14731     14733     14718     14716     14731     14737
     14719     14715     14716     14731     14719     14715     14723     14724
     14719     14715     14723     14725     14719     14715     14723     14726
     14719     14715     14727     14728     14719     14715     14727     14729
     14719     14715     14727     14730     14720     14719     14715     14723
     14720     14719     14715     14727     14721     14719     14715     14723
     14721     14719     14715     14727     14722     14719     14715     14723
     14722     14719     14715     14727     14723     14715     14716     14731
     14723     14715     14727     14728     14723     14715     14727     14729
     14723     14715     14727     14730     14724     14723     14715     14727
     14725     14723     14715     14727     14726     14723     14715     14727
     14727     14715     14716     14731     14731     14737     14734     14735
     14731     14737     14734     14736     14731     14737     14734     14738
     14732     14731     14737     14734     14733     14731     14737     14734
     14734     14738     14739     14740     14734     14738     14739     14741
     14734     14738     14739     14742     14735     14734     14738     14739
     14736     14734     14738     14739     14737     14734     14738     14739
     14738     14739     14742     14743     14738     14739     14742     14744
     14738     14739     14742     14750     14739     14742     14744     14745
     14739     14742     14750     14751     14739     14742     14750     14752
     14739     14742     14750     14753     14740     14739     14742     14743
     14740     14739     14742     14744     14740     14739     14742     14750
     14741     14739     14742     14743     14741     14739     14742     14744
     14741     14739     14742     14750     14742     14744     14745     14746
     14742     14744     14745     14747     14742     14750     14753     14754
     14743     14742     14744     14745     14743     14742     14750     14751
     14743     14742     14750     14752     14743     14742     14750     14753
     14744     14742     14750     14751     14744     14742     14750     14752
     14744     14742     14750     14753     14744     14745     14747     14748
     14744     14745     14747     14749     14744     14745     14747     14759
     14745     14744     14742     14750     14745     14747     14759     14760
     14745     14747     14759     14761     14745     14747     14759     14762
     14746     14745     14747     14748     14746     14745     14747     14749
     14746     14745     14747     14759     14747     14759     14762     14763
     14747     14759     14762     14764     14747     14759     14762     14765
     14748     14747     14759     14760     14748     14747     14759     14761
     14748     14747     14759     14762     14749     14747     14759     14760
     14749     14747     14759     14761     14749     14747     14759     14762
     14750     14753     14754     14755     14750     14753     14754     14756
     14751     14750     14753     14754     14752     14750     14753     14754
     14753     14754     14756     14757     14753     14754     14756     14758
     14753     14754     14756     14806     14754     14756     14806     14807
     14754     14756     14806     14808     14754     14756     14806     14809
     14755     14754     14756     14757     14755     14754     14756     14758
     14755     14754     14756     14806     14756     14806     14809     14810
     14756     14806     14809     14811     14756     14806     14809     14812
     14757     14756     14806     14807     14757     14756     14806     14808
     14757     14756     14806     14809     14758     14756     14806     14807
     14758     14756     14806     14808     14758     14756     14806     14809
     14759     14762     14765     14766     14759     14762     14765     14767
     14759     14762     14765     14768     14760     14759     14762     14763
     14760     14759     14762     14764     14760     14759     14762     14765
     14761     14759     14762     14763     14761     14759     14762     14764
     14761     14759     14762     14765     14762     14765     14768     14769
     14762     14765     14768     14770     14762     14765     14768     14771
     14763     14762     14765     14766     14763     14762     14765     14767
     14763     14762     14765     14768     14764     14762     14765     14766
     14764     14762     14765     14767     14764     14762     14765     14768
     14765     14768     14771     14772     14765     14768     14771     14773
     14765     14768     14771     14774     14766     14765     14768     14769
     14766     14765     14768     14770     14766     14765     14768     14771
     14767     14765     14768     14769     14767     14765     14768     14770
     14767     14765     14768     14771     14768     14771     14774     14775
     14768     14771     14774     14776     14768     14771     14774     14777
     14769     14768     14771     14772     14769     14768     14771     14773
     14769     14768     14771     14774     14770     14768     14771     14772
     14770     14768     14771     14773     14770     14768     14771     14774
     14771     14774     14777     14778     14771     14774     14777     14779
     14772     14771     14774     14775     14772     14771     14774     14776
     14772     14771     14774     14777     14773     14771     14774     14775
     14773     14771     14774     14776     14773     14771     14774     14777
     14774     14777     14779     14780     14774     14777     14779     14781
     14775     14774     14777     14778     14775     14774     14777     14779
     14776     14774     14777     14778     14776     14774     14777     14779
     14777     14779     14781     14782     14777     14779     14781     14783
     14777     14779     14781     14784     14778     14777     14779     14780
     14778     14777     14779     14781     14779     14781     14784     14785
     14779     14781     14784     14786     14779     14781     14784     14787
     14780     14779     14781     14782     14780     14779     14781     14783
     14780     14779     14781     14784     14781     14784     14787     14788
     14781     14784     14787     14789     14781     14784     14787     14790
     14782     14781     14784     14785     14782     14781     14784     14786
     14782     14781     14784     14787     14783     14781     14784     14785
     14783     14781     14784     14786     14783     14781     14784     14787
     14784     14787     14790     14791     14784     14787     14790     14792
     14784     14787     14790     14793     14785     14784     14787     14788
     14785     14784     14787     14789     14785     14784     14787     14790
     14786     14784     14787     14788     14786     14784     14787     14789
     14786     14784     14787     14790     14787     14790     14793     14794
     14787     14790     14793     14795     14787     14790     14793     14796
     14788     14787     14790     14791     14788     14787     14790     14792
     14788     14787     14790     14793     14789     14787     14790     14791
     14789     14787     14790     14792     14789     14787     14790     14793
     14790     14793     14796     14797     14790     14793     14796     14798
     14790     14793     14796     14799     14791     14790     14793     14794
     14791     14790     14793     14795     14791     14790     14793     14796
     14792     14790     14793     14794     14792     14790     14793     14795
     14792     14790     14793     14796     14793     14796     14799     14800
     14793     14796     14799     14801     14793     14796     14799     14802
     14794     14793     14796     14797     14794     14793     14796     14798
     14794     14793     14796     14799     14795     14793     14796     14797
     14795     14793     14796     14798     14795     14793     14796     14799
     14796     14799     14802     14803     14796     14799     14802     14804
     14796     14799     14802     14805     14797     14796     14799     14800
     14797     14796     14799     14801     14797     14796     14799     14802
     14798     14796     14799     14800     14798     14796     14799     14801
     14798     14796     14799     14802     14800     14799     14802     14803
     14800     14799     14802     14804     14800     14799     14802     14805
     14801     14799     14802     14803     14801     14799     14802     14804
     14801     14799     14802     14805     14806     14809     14812     14813
     14806     14809     14812     14814     14806     14809     14812     14815
     14807     14806     14809     14810     14807     14806     14809     14811
     14807     14806     14809     14812     14808     14806     14809     14810
     14808     14806     14809     14811     14808     14806     14809     14812
     14809     14812     14815     14816     14809     14812     14815     14817
     14809     14812     14815     14818     14810     14809     14812     14813
     14810     14809     14812     14814     14810     14809     14812     14815
     14811     14809     14812     14813     14811     14809     14812     14814
     14811     14809     14812     14815     14812     14815     14818     14819
     14812     14815     14818     14820     14812     14815     14818     14821
     14813     14812     14815     14816     14813     14812     14815     14817
     14813     14812     14815     14818     14814     14812     14815     14816
     14814     14812     14815     14817     14814     14812     14815     14818
     14815     14818     14821     14822     14815     14818     14821     14823
     14815     14818     14821     14824     14816     14815     14818     14819
     14816     14815     14818     14820     14816     14815     14818     14821
     14817     14815     14818     14819     14817     14815     14818     14820
     14817     14815     14818     14821     14818     14821     14824     14825
     14818     14821     14824     14826     14819     14818     14821     14822
     14819     14818     14821     14823     14819     14818     14821     14824
     14820     14818     14821     14822     14820     14818     14821     14823
     14820     14818     14821     14824     14821     14824     14826     14827
     14821     14824     14826     14828     14822     14821     14824     14825
     14822     14821     14824     14826     14823     14821     14824     14825
     14823     14821     14824     14826     14824     14826     14828     14829
     14824     14826     14828     14830     14824     14826     14828     14831
     14825     14824     14826     14827     14825     14824     14826     14828
     14826     14828     14831     14832     14826     14828     14831     14833
     14826     14828     14831     14834     14827     14826     14828     14829
     14827     14826     14828     14830     14827     14826     14828     14831
     14828     14831     14834     14835     14828     14831     14834     14836
     14828     14831     14834     14837     14829     14828     14831     14832
     14829     14828     14831     14833     14829     14828     14831     14834
     14830     14828     14831     14832     14830     14828     14831     14833
     14830     14828     14831     14834     14831     14834     14837     14838
     14831     14834     14837     14839     14831     14834     14837     14840
     14832     14831     14834     14835     14832     14831     14834     14836
     14832     14831     14834     14837     14833     14831     14834     14835
     14833     14831     14834     14836     14833     14831     14834     14837
     14834     14837     14840     14841     14834     14837     14840     14842
     14834     14837     14840     14843     14835     14834     14837     14838
     14835     14834     14837     14839     14835     14834     14837     14840
     14836     14834     14837     14838     14836     14834     14837     14839
     14836     14834     14837     14840     14837     14840     14843     14844
     14837     14840     14843     14845     14837     14840     14843     14846
     14838     14837     14840     14841     14838     14837     14840     14842
     14838     14837     14840     14843     14839     14837     14840     14841
     14839     14837     14840     14842     14839     14837     14840     14843
     14840     14843     14846     14847     14840     14843     14846     14848
     14840     14843     14846     14849     14841     14840     14843     14844
     14841     14840     14843     14845     14841     14840     14843     14846
     14842     14840     14843     14844     14842     14840     14843     14845
     14842     14840     14843     14846     14843     14846     14849     14850
     14843     14846     14849     14851     14843     14846     14849     14852
     14844     14843     14846     14847     14844     14843     14846     14848
     14844     14843     14846     14849     14845     14843     14846     14847
     14845     14843     14846     14848     14845     14843     14846     14849
     14847     14846     14849     14850     14847     14846     14849     14851
     14847     14846     14849     14852     14848     14846     14849     14850
     14848     14846     14849     14851     14848     14846     14849     14852
     14853     14854     14869     14870     14853     14854     14869     14871
     14853     14854     14869     14875     14854     14853     14857     14858
     14854     14853     14857     14859     14854     14853     14857     14860
     14854     14853     14861     14862     14854     14853     14861     14863
     14854     14853     14861     14864     14854     14853     14865     14866
     14854     14853     14865     14867     14854     14853     14865     14868
     14854     14869     14875     14872     14855     14854     14853     14857
     14855     14854     14853     14861     14855     14854     14853     14865
     14855     14854     14869     14870     14855     14854     14869     14871
     14855     14854     14869     14875     14856     14854     14853     14857
     14856     14854     14853     14861     14856     14854     14853     14865
     14856     14854     14869     14870     14856     14854     14869     14871
     14856     14854     14869     14875     14857     14853     14854     14869
     14857     14853     14861     14862     14857     14853     14861     14863
     14857     14853     14861     14864     14857     14853     14865     14866
     14857     14853     14865     14867     14857     14853     14865     14868
     14858     14857     14853     14861     14858     14857     14853     14865
     14859     14857     14853     14861     14859     14857     14853     14865
     14860     14857     14853     14861     14860     14857     14853     14865
     14861     14853     14854     14869     14861     14853     14865     14866
     14861     14853     14865     14867     14861     14853     14865     14868
     14862     14861     14853     14865     14863     14861     14853     14865
     14864     14861     14853     14865     14865     14853     14854     14869
     14869     14875     14872     14873     14869     14875     14872     14874
     14869     14875     14872     14876     14870     14869     14875     14872
     14871     14869     14875     14872     14872     14876     14877     14878
     14872     14876     14877     14879     14872     14876     14877     14880
     14873     14872     14876     14877     14874     14872     14876     14877
     14875     14872     14876     14877     14876     14877     14880     14881
     14876     14877     14880     14882     14876     14877     14880     14888
     14877     14880     14882     14883     14877     14880     14888     14889
     14877     14880     14888     14890     14877     14880     14888     14891
     14878     14877     14880     14881     14878     14877     14880     14882
     14878     14877     14880     14888     14879     14877     14880     14881
     14879     14877     14880     14882     14879     14877     14880     14888
     14880     14882     14883     14884     14880     14882     14883     14885
     14880     14888     14891     14892     14881     14880     14882     14883
     14881     14880     14888     14889     14881     14880     14888     14890
     14881     14880     14888     14891     14882     14880     14888     14889
     14882     14880     14888     14890     14882     14880     14888     14891
     14882     14883     14885     14886     14882     14883     14885     14887
     14882     14883     14885     14897     14883     14882     14880     14888
     14883     14885     14897     14898     14883     14885     14897     14899
     14883     14885     14897     14900     14884     14883     14885     14886
     14884     14883     14885     14887     14884     14883     14885     14897
     14885     14897     14900     14901     14885     14897     14900     14902
     14885     14897     14900     14903     14886     14885     14897     14898
     14886     14885     14897     14899     14886     14885     14897     14900
     14887     14885     14897     14898     14887     14885     14897     14899
     14887     14885     14897     14900     14888     14891     14892     14893
     14888     14891     14892     14894     14889     14888     14891     14892
     14890     14888     14891     14892     14891     14892     14894     14895
     14891     14892     14894     14896     14891     14892     14894     14944
     14892     14894     14944     14945     14892     14894     14944     14946
     14892     14894     14944     14947     14893     14892     14894     14895
     14893     14892     14894     14896     14893     14892     14894     14944
     14894     14944     14947     14948     14894     14944     14947     14949
     14894     14944     14947     14950     14895     14894     14944     14945
     14895     14894     14944     14946     14895     14894     14944     14947
     14896     14894     14944     14945     14896     14894     14944     14946
     14896     14894     14944     14947     14897     14900     14903     14904
     14897     14900     14903     14905     14897     14900     14903     14906
     14898     14897     14900     14901     14898     14897     14900     14902
     14898     14897     14900     14903     14899     14897     14900     14901
     14899     14897     14900     14902     14899     14897     14900     14903
     14900     14903     14906     14907     14900     14903     14906     14908
     14900     14903     14906     14909     14901     14900     14903     14904
     14901     14900     14903     14905     14901     14900     14903     14906
     14902     14900     14903     14904     14902     14900     14903     14905
     14902     14900     14903     14906     14903     14906     14909     14910
     14903     14906     14909     14911     14903     14906     14909     14912
     14904     14903     14906     14907     14904     14903     14906     14908
     14904     14903     14906     14909     14905     14903     14906     14907
     14905     14903     14906     14908     14905     14903     14906     14909
     14906     14909     14912     14913     14906     14909     14912     14914
     14906     14909     14912     14915     14907     14906     14909     14910
     14907     14906     14909     14911     14907     14906     14909     14912
     14908     14906     14909     14910     14908     14906     14909     14911
     14908     14906     14909     14912     14909     14912     14915     14916
     14909     14912     14915     14917     14910     14909     14912     14913
     14910     14909     14912     14914     14910     14909     14912     14915
     14911     14909     14912     14913     14911     14909     14912     14914
     14911     14909     14912     14915     14912     14915     14917     14918
     14912     14915     14917     14919     14913     14912     14915     14916
     14913     14912     14915     14917     14914     14912     14915     14916
     14914     14912     14915     14917     14915     14917     14919     14920
     14915     14917     14919     14921     14915     14917     14919     14922
     14916     14915     14917     14918     14916     14915     14917     14919
     14917     14919     14922     14923     14917     14919     14922     14924
     14917     14919     14922     14925     14918     14917     14919     14920
     14918     14917     14919     14921     14918     14917     14919     14922
     14919     14922     14925     14926     14919     14922     14925     14927
     14919     14922     14925     14928     14920     14919     14922     14923
     14920     14919     14922     14924     14920     14919     14922     14925
     14921     14919     14922     14923     14921     14919     14922     14924
     14921     14919     14922     14925     14922     14925     14928     14929
     14922     14925     14928     14930     14922     14925     14928     14931
     14923     14922     14925     14926     14923     14922     14925     14927
     14923     14922     14925     14928     14924     14922     14925     14926
     14924     14922     14925     14927     14924     14922     14925     14928
     14925     14928     14931     14932     14925     14928     14931     14933
     14925     14928     14931     14934     14926     14925     14928     14929
     14926     14925     14928     14930     14926     14925     14928     14931
     14927     14925     14928     14929     14927     14925     14928     14930
     14927     14925     14928     14931     14928     14931     14934     14935
     14928     14931     14934     14936     14928     14931     14934     14937
     14929     14928     14931     14932     14929     14928     14931     14933
     14929     14928     14931     14934     14930     14928     14931     14932
     14930     14928     14931     14933     14930     14928     14931     14934
     14931     14934     14937     14938     14931     14934     14937     14939
     14931     14934     14937     14940     14932     14931     14934     14935
     14932     14931     14934     14936     14932     14931     14934     14937
     14933     14931     14934     14935     14933     14931     14934     14936
     14933     14931     14934     14937     14934     14937     14940     14941
     14934     14937     14940     14942     14934     14937     14940     14943
     14935     14934     14937     14938     14935     14934     14937     14939
     14935     14934     14937     14940     14936     14934     14937     14938
     14936     14934     14937     14939     14936     14934     14937     14940
     14938     14937     14940     14941     14938     14937     14940     14942
     14938     14937     14940     14943     14939     14937     14940     14941
     14939     14937     14940     14942     14939     14937     14940     14943
     14944     14947     14950     14951     14944     14947     14950     14952
     14944     14947     14950     14953     14945     14944     14947     14948
     14945     14944     14947     14949     14945     14944     14947     14950
     14946     14944     14947     14948     14946     14944     14947     14949
     14946     14944     14947     14950     14947     14950     14953     14954
     14947     14950     14953     14955     14947     14950     14953     14956
     14948     14947     14950     14951     14948     14947     14950     14952
     14948     14947     14950     14953     14949     14947     14950     14951
     14949     14947     14950     14952     14949     14947     14950     14953
     14950     14953     14956     14957     14950     14953     14956     14958
     14950     14953     14956     14959     14951     14950     14953     14954
     14951     14950     14953     14955     14951     14950     14953     14956
     14952     14950     14953     14954     14952     14950     14953     14955
     14952     14950     14953     14956     14953     14956     14959     14960
     14953     14956     14959     14961     14953     14956     14959     14962
     14954     14953     14956     14957     14954     14953     14956     14958
     14954     14953     14956     14959     14955     14953     14956     14957
     14955     14953     14956     14958     14955     14953     14956     14959
     14956     14959     14962     14963     14956     14959     14962     14964
     14957     14956     14959     14960     14957     14956     14959     14961
     14957     14956     14959     14962     14958     14956     14959     14960
     14958     14956     14959     14961     14958     14956     14959     14962
     14959     14962     14964     14965     14959     14962     14964     14966
     14960     14959     14962     14963     14960     14959     14962     14964
     14961     14959     14962     14963     14961     14959     14962     14964
     14962     14964     14966     14967     14962     14964     14966     14968
     14962     14964     14966     14969     14963     14962     14964     14965
     14963     14962     14964     14966     14964     14966     14969     14970
     14964     14966     14969     14971     14964     14966     14969     14972
     14965     14964     14966     14967     14965     14964     14966     14968
     14965     14964     14966     14969     14966     14969     14972     14973
     14966     14969     14972     14974     14966     14969     14972     14975
     14967     14966     14969     14970     14967     14966     14969     14971
     14967     14966     14969     14972     14968     14966     14969     14970
     14968     14966     14969     14971     14968     14966     14969     14972
     14969     14972     14975     14976     14969     14972     14975     14977
     14969     14972     14975     14978     14970     14969     14972     14973
     14970     14969     14972     14974     14970     14969     14972     14975
     14971     14969     14972     14973     14971     14969     14972     14974
     14971     14969     14972     14975     14972     14975     14978     14979
     14972     14975     14978     14980     14972     14975     14978     14981
     14973     14972     14975     14976     14973     14972     14975     14977
     14973     14972     14975     14978     14974     14972     14975     14976
     14974     14972     14975     14977     14974     14972     14975     14978
     14975     14978     14981     14982     14975     14978     14981     14983
     14975     14978     14981     14984     14976     14975     14978     14979
     14976     14975     14978     14980     14976     14975     14978     14981
     14977     14975     14978     14979     14977     14975     14978     14980
     14977     14975     14978     14981     14978     14981     14984     14985
     14978     14981     14984     14986     14978     14981     14984     14987
     14979     14978     14981     14982     14979     14978     14981     14983
     14979     14978     14981     14984     14980     14978     14981     14982
     14980     14978     14981     14983     14980     14978     14981     14984
     14981     14984     14987     14988     14981     14984     14987     14989
     14981     14984     14987     14990     14982     14981     14984     14985
     14982     14981     14984     14986     14982     14981     14984     14987
     14983     14981     14984     14985     14983     14981     14984     14986
     14983     14981     14984     14987     14985     14984     14987     14988
     14985     14984     14987     14989     14985     14984     14987     14990
     14986     14984     14987     14988     14986     14984     14987     14989
     14986     14984     14987     14990     14991     14992     15007     15008
     14991     14992     15007     15009     14991     14992     15007     15013
     14992     14991     14995     14996     14992     14991     14995     14997
     14992     14991     14995     14998     14992     14991     14999     15000
     14992     14991     14999     15001     14992     14991     14999     15002
     14992     14991     15003     15004     14992     14991     15003     15005
     14992     14991     15003     15006     14992     15007     15013     15010
     14993     14992     14991     14995     14993     14992     14991     14999
     14993     14992     14991     15003     14993     14992     15007     15008
     14993     14992     15007     15009     14993     14992     15007     15013
     14994     14992     14991     14995     14994     14992     14991     14999
     14994     14992     14991     15003     14994     14992     15007     15008
     14994     14992     15007     15009     14994     14992     15007     15013
     14995     14991     14992     15007     14995     14991     14999     15000
     14995     14991     14999     15001     14995     14991     14999     15002
     14995     14991     15003     15004     14995     14991     15003     15005
     14995     14991     15003     15006     14996     14995     14991     14999
     14996     14995     14991     15003     14997     14995     14991     14999
     14997     14995     14991     15003     14998     14995     14991     14999
     14998     14995     14991     15003     14999     14991     14992     15007
     14999     14991     15003     15004     14999     14991     15003     15005
     14999     14991     15003     15006     15000     14999     14991     15003
     15001     14999     14991     15003     15002     14999     14991     15003
     15003     14991     14992     15007     15007     15013     15010     15011
     15007     15013     15010     15012     15007     15013     15010     15014
     15008     15007     15013     15010     15009     15007     15013     15010
     15010     15014     15015     15016     15010     15014     15015     15017
     15010     15014     15015     15018     15011     15010     15014     15015
     15012     15010     15014     15015     15013     15010     15014     15015
     15014     15015     15018     15019     15014     15015     15018     15020
     15014     15015     15018     15026     15015     15018     15020     15021
     15015     15018     15026     15027     15015     15018     15026     15028
     15015     15018     15026     15029     15016     15015     15018     15019
     15016     15015     15018     15020     15016     15015     15018     15026
     15017     15015     15018     15019     15017     15015     15018     15020
     15017     15015     15018     15026     15018     15020     15021     15022
     15018     15020     15021     15023     15018     15026     15029     15030
     15019     15018     15020     15021     15019     15018     15026     15027
     15019     15018     15026     15028     15019     15018     15026     15029
     15020     15018     15026     15027     15020     15018     15026     15028
     15020     15018     15026     15029     15020     15021     15023     15024
     15020     15021     15023     15025     15020     15021     15023     15035
     15021     15020     15018     15026     15021     15023     15035     15036
     15021     15023     15035     15037     15021     15023     15035     15038
     15022     15021     15023     15024     15022     15021     15023     15025
     15022     15021     15023     15035     15023     15035     15038     15039
     15023     15035     15038     15040     15023     15035     15038     15041
     15024     15023     15035     15036     15024     15023     15035     15037
     15024     15023     15035     15038     15025     15023     15035     15036
     15025     15023     15035     15037     15025     15023     15035     15038
     15026     15029     15030     15031     15026     15029     15030     15032
     15027     15026     15029     15030     15028     15026     15029     15030
     15029     15030     15032     15033     15029     15030     15032     15034
     15029     15030     15032     15082     15030     15032     15082     15083
     15030     15032     15082     15084     15030     15032     15082     15085
     15031     15030     15032     15033     15031     15030     15032     15034
     15031     15030     15032     15082     15032     15082     15085     15086
     15032     15082     15085     15087     15032     15082     15085     15088
     15033     15032     15082     15083     15033     15032     15082     15084
     15033     15032     15082     15085     15034     15032     15082     15083
     15034     15032     15082     15084     15034     15032     15082     15085
     15035     15038     15041     15042     15035     15038     15041     15043
     15035     15038     15041     15044     15036     15035     15038     15039
     15036     15035     15038     15040     15036     15035     15038     15041
     15037     15035     15038     15039     15037     15035     15038     15040
     15037     15035     15038     15041     15038     15041     15044     15045
     15038     15041     15044     15046     15038     15041     15044     15047
     15039     15038     15041     15042     15039     15038     15041     15043
     15039     15038     15041     15044     15040     15038     15041     15042
     15040     15038     15041     15043     15040     15038     15041     15044
     15041     15044     15047     15048     15041     15044     15047     15049
     15041     15044     15047     15050     15042     15041     15044     15045
     15042     15041     15044     15046     15042     15041     15044     15047
     15043     15041     15044     15045     15043     15041     15044     15046
     15043     15041     15044     15047     15044     15047     15050     15051
     15044     15047     15050     15052     15044     15047     15050     15053
     15045     15044     15047     15048     15045     15044     15047     15049
     15045     15044     15047     15050     15046     15044     15047     15048
     15046     15044     15047     15049     15046     15044     15047     15050
     15047     15050     15053     15054     15047     15050     15053     15055
     15048     15047     15050     15051     15048     15047     15050     15052
     15048     15047     15050     15053     15049     15047     15050     15051
     15049     15047     15050     15052     15049     15047     15050     15053
     15050     15053     15055     15056     15050     15053     15055     15057
     15051     15050     15053     15054     15051     15050     15053     15055
     15052     15050     15053     15054     15052     15050     15053     15055
     15053     15055     15057     15058     15053     15055     15057     15059
     15053     15055     15057     15060     15054     15053     15055     15056
     15054     15053     15055     15057     15055     15057     15060     15061
     15055     15057     15060     15062     15055     15057     15060     15063
     15056     15055     15057     15058     15056     15055     15057     15059
     15056     15055     15057     15060     15057     15060     15063     15064
     15057     15060     15063     15065     15057     15060     15063     15066
     15058     15057     15060     15061     15058     15057     15060     15062
     15058     15057     15060     15063     15059     15057     15060     15061
     15059     15057     15060     15062     15059     15057     15060     15063
     15060     15063     15066     15067     15060     15063     15066     15068
     15060     15063     15066     15069     15061     15060     15063     15064
     15061     15060     15063     15065     15061     15060     15063     15066
     15062     15060     15063     15064     15062     15060     15063     15065
     15062     15060     15063     15066     15063     15066     15069     15070
     15063     15066     15069     15071     15063     15066     15069     15072
     15064     15063     15066     15067     15064     15063     15066     15068
     15064     15063     15066     15069     15065     15063     15066     15067
     15065     15063     15066     15068     15065     15063     15066     15069
     15066     15069     15072     15073     15066     15069     15072     15074
     15066     15069     15072     15075     15067     15066     15069     15070
     15067     15066     15069     15071     15067     15066     15069     15072
     15068     15066     15069     15070     15068     15066     15069     15071
     15068     15066     15069     15072     15069     15072     15075     15076
     15069     15072     15075     15077     15069     15072     15075     15078
     15070     15069     15072     15073     15070     15069     15072     15074
     15070     15069     15072     15075     15071     15069     15072     15073
     15071     15069     15072     15074     15071     15069     15072     15075
     15072     15075     15078     15079     15072     15075     15078     15080
     15072     15075     15078     15081     15073     15072     15075     15076
     15073     15072     15075     15077     15073     15072     15075     15078
     15074     15072     15075     15076     15074     15072     15075     15077
     15074     15072     15075     15078     15076     15075     15078     15079
     15076     15075     15078     15080     15076     15075     15078     15081
     15077     15075     15078     15079     15077     15075     15078     15080
     15077     15075     15078     15081     15082     15085     15088     15089
     15082     15085     15088     15090     15082     15085     15088     15091
     15083     15082     15085     15086     15083     15082     15085     15087
     15083     15082     15085     15088     15084     15082     15085     15086
     15084     15082     15085     15087     15084     15082     15085     15088
     15085     15088     15091     15092     15085     15088     15091     15093
     15085     15088     15091     15094     15086     15085     15088     15089
     15086     15085     15088     15090     15086     15085     15088     15091
     15087     15085     15088     15089     15087     15085     15088     15090
     15087     15085     15088     15091     15088     15091     15094     15095
     15088     15091     15094     15096     15088     15091     15094     15097
     15089     15088     15091     15092     15089     15088     15091     15093
     15089     15088     15091     15094     15090     15088     15091     15092
     15090     15088     15091     15093     15090     15088     15091     15094
     15091     15094     15097     15098     15091     15094     15097     15099
     15091     15094     15097     15100     15092     15091     15094     15095
     15092     15091     15094     15096     15092     15091     15094     15097
     15093     15091     15094     15095     15093     15091     15094     15096
     15093     15091     15094     15097     15094     15097     15100     15101
     15094     15097     15100     15102     15095     15094     15097     15098
     15095     15094     15097     15099     15095     15094     15097     15100
     15096     15094     15097     15098     15096     15094     15097     15099
     15096     15094     15097     15100     15097     15100     15102     15103
     15097     15100     15102     15104     15098     15097     15100     15101
     15098     15097     15100     15102     15099     15097     15100     15101
     15099     15097     15100     15102     15100     15102     15104     15105
     15100     15102     15104     15106     15100     15102     15104     15107
     15101     15100     15102     15103     15101     15100     15102     15104
     15102     15104     15107     15108     15102     15104     15107     15109
     15102     15104     15107     15110     15103     15102     15104     15105
     15103     15102     15104     15106     15103     15102     15104     15107
     15104     15107     15110     15111     15104     15107     15110     15112
     15104     15107     15110     15113     15105     15104     15107     15108
     15105     15104     15107     15109     15105     15104     15107     15110
     15106     15104     15107     15108     15106     15104     15107     15109
     15106     15104     15107     15110     15107     15110     15113     15114
     15107     15110     15113     15115     15107     15110     15113     15116
     15108     15107     15110     15111     15108     15107     15110     15112
     15108     15107     15110     15113     15109     15107     15110     15111
     15109     15107     15110     15112     15109     15107     15110     15113
     15110     15113     15116     15117     15110     15113     15116     15118
     15110     15113     15116     15119     15111     15110     15113     15114
     15111     15110     15113     15115     15111     15110     15113     15116
     15112     15110     15113     15114     15112     15110     15113     15115
     15112     15110     15113     15116     15113     15116     15119     15120
     15113     15116     15119     15121     15113     15116     15119     15122
     15114     15113     15116     15117     15114     15113     15116     15118
     15114     15113     15116     15119     15115     15113     15116     15117
     15115     15113     15116     15118     15115     15113     15116     15119
     15116     15119     15122     15123     15116     15119     15122     15124
     15116     15119     15122     15125     15117     15116     15119     15120
     15117     15116     15119     15121     15117     15116     15119     15122
     15118     15116     15119     15120     15118     15116     15119     15121
     15118     15116     15119     15122     15119     15122     15125     15126
     15119     15122     15125     15127     15119     15122     15125     15128
     15120     15119     15122     15123     15120     15119     15122     15124
     15120     15119     15122     15125     15121     15119     15122     15123
     15121     15119     15122     15124     15121     15119     15122     15125
     15123     15122     15125     15126     15123     15122     15125     15127
     15123     15122     15125     15128     15124     15122     15125     15126
     15124     15122     15125     15127     15124     15122     15125     15128
     15129     15130     15145     15146     15129     15130     15145     15147
     15129     15130     15145     15151     15130     15129     15133     15134
     15130     15129     15133     15135     15130     15129     15133     15136
     15130     15129     15137     15138     15130     15129     15137     15139
     15130     15129     15137     15140     15130     15129     15141     15142
     15130     15129     15141     15143     15130     15129     15141     15144
     15130     15145     15151     15148     15131     15130     15129     15133
     15131     15130     15129     15137     15131     15130     15129     15141
     15131     15130     15145     15146     15131     15130     15145     15147
     15131     15130     15145     15151     15132     15130     15129     15133
     15132     15130     15129     15137     15132     15130     15129     15141
     15132     15130     15145     15146     15132     15130     15145     15147
     15132     15130     15145     15151     15133     15129     15130     15145
     15133     15129     15137     15138     15133     15129     15137     15139
     15133     15129     15137     15140     15133     15129     15141     15142
     15133     15129     15141     15143     15133     15129     15141     15144
     15134     15133     15129     15137     15134     15133     15129     15141
     15135     15133     15129     15137     15135     15133     15129     15141
     15136     15133     15129     15137     15136     15133     15129     15141
     15137     15129     15130     15145     15137     15129     15141     15142
     15137     15129     15141     15143     15137     15129     15141     15144
     15138     15137     15129     15141     15139     15137     15129     15141
     15140     15137     15129     15141     15141     15129     15130     15145
     15145     15151     15148     15149     15145     15151     15148     15150
     15145     15151     15148     15152     15146     15145     15151     15148
     15147     15145     15151     15148     15148     15152     15153     15154
     15148     15152     15153     15155     15148     15152     15153     15156
     15149     15148     15152     15153     15150     15148     15152     15153
     15151     15148     15152     15153     15152     15153     15156     15157
     15152     15153     15156     15158     15152     15153     15156     15164
     15153     15156     15158     15159     15153     15156     15164     15165
     15153     15156     15164     15166     15153     15156     15164     15167
     15154     15153     15156     15157     15154     15153     15156     15158
     15154     15153     15156     15164     15155     15153     15156     15157
     15155     15153     15156     15158     15155     15153     15156     15164
     15156     15158     15159     15160     15156     15158     15159     15161
     15156     15164     15167     15168     15157     15156     15158     15159
     15157     15156     15164     15165     15157     15156     15164     15166
     15157     15156     15164     15167     15158     15156     15164     15165
     15158     15156     15164     15166     15158     15156     15164     15167
     15158     15159     15161     15162     15158     15159     15161     15163
     15158     15159     15161     15173     15159     15158     15156     15164
     15159     15161     15173     15174     15159     15161     15173     15175
     15159     15161     15173     15176     15160     15159     15161     15162
     15160     15159     15161     15163     15160     15159     15161     15173
     15161     15173     15176     15177     15161     15173     15176     15178
     15161     15173     15176     15179     15162     15161     15173     15174
     15162     15161     15173     15175     15162     15161     15173     15176
     15163     15161     15173     15174     15163     15161     15173     15175
     15163     15161     15173     15176     15164     15167     15168     15169
     15164     15167     15168     15170     15165     15164     15167     15168
     15166     15164     15167     15168     15167     15168     15170     15171
     15167     15168     15170     15172     15167     15168     15170     15220
     15168     15170     15220     15221     15168     15170     15220     15222
     15168     15170     15220     15223     15169     15168     15170     15171
     15169     15168     15170     15172     15169     15168     15170     15220
     15170     15220     15223     15224     15170     15220     15223     15225
     15170     15220     15223     15226     15171     15170     15220     15221
     15171     15170     15220     15222     15171     15170     15220     15223
     15172     15170     15220     15221     15172     15170     15220     15222
     15172     15170     15220     15223     15173     15176     15179     15180
     15173     15176     15179     15181     15173     15176     15179     15182
     15174     15173     15176     15177     15174     15173     15176     15178
     15174     15173     15176     15179     15175     15173     15176     15177
     15175     15173     15176     15178     15175     15173     15176     15179
     15176     15179     15182     15183     15176     15179     15182     15184
     15176     15179     15182     15185     15177     15176     15179     15180
     15177     15176     15179     15181     15177     15176     15179     15182
     15178     15176     15179     15180     15178     15176     15179     15181
     15178     15176     15179     15182     15179     15182     15185     15186
     15179     15182     15185     15187     15179     15182     15185     15188
     15180     15179     15182     15183     15180     15179     15182     15184
     15180     15179     15182     15185     15181     15179     15182     15183
     15181     15179     15182     15184     15181     15179     15182     15185
     15182     15185     15188     15189     15182     15185     15188     15190
     15182     15185     15188     15191     15183     15182     15185     15186
     15183     15182     15185     15187     15183     15182     15185     15188
     15184     15182     15185     15186     15184     15182     15185     15187
     15184     15182     15185     15188     15185     15188     15191     15192
     15185     15188     15191     15193     15186     15185     15188     15189
     15186     15185     15188     15190     15186     15185     15188     15191
     15187     15185     15188     15189     15187     15185     15188     15190
     15187     15185     15188     15191     15188     15191     15193     15194
     15188     15191     15193     15195     15189     15188     15191     15192
     15189     15188     15191     15193     15190     15188     15191     15192
     15190     15188     15191     15193     15191     15193     15195     15196
     15191     15193     15195     15197     15191     15193     15195     15198
     15192     15191     15193     15194     15192     15191     15193     15195
     15193     15195     15198     15199     15193     15195     15198     15200
     15193     15195     15198     15201     15194     15193     15195     15196
     15194     15193     15195     15197     15194     15193     15195     15198
     15195     15198     15201     15202     15195     15198     15201     15203
     15195     15198     15201     15204     15196     15195     15198     15199
     15196     15195     15198     15200     15196     15195     15198     15201
     15197     15195     15198     15199     15197     15195     15198     15200
     15197     15195     15198     15201     15198     15201     15204     15205
     15198     15201     15204     15206     15198     15201     15204     15207
     15199     15198     15201     15202     15199     15198     15201     15203
     15199     15198     15201     15204     15200     15198     15201     15202
     15200     15198     15201     15203     15200     15198     15201     15204
     15201     15204     15207     15208     15201     15204     15207     15209
     15201     15204     15207     15210     15202     15201     15204     15205
     15202     15201     15204     15206     15202     15201     15204     15207
     15203     15201     15204     15205     15203     15201     15204     15206
     15203     15201     15204     15207     15204     15207     15210     15211
     15204     15207     15210     15212     15204     15207     15210     15213
     15205     15204     15207     15208     15205     15204     15207     15209
     15205     15204     15207     15210     15206     15204     15207     15208
     15206     15204     15207     15209     15206     15204     15207     15210
     15207     15210     15213     15214     15207     15210     15213     15215
     15207     15210     15213     15216     15208     15207     15210     15211
     15208     15207     15210     15212     15208     15207     15210     15213
     15209     15207     15210     15211     15209     15207     15210     15212
     15209     15207     15210     15213     15210     15213     15216     15217
     15210     15213     15216     15218     15210     15213     15216     15219
     15211     15210     15213     15214     15211     15210     15213     15215
     15211     15210     15213     15216     15212     15210     15213     15214
     15212     15210     15213     15215     15212     15210     15213     15216
     15214     15213     15216     15217     15214     15213     15216     15218
     15214     15213     15216     15219     15215     15213     15216     15217
     15215     15213     15216     15218     15215     15213     15216     15219
     15220     15223     15226     15227     15220     15223     15226     15228
     15220     15223     15226     15229     15221     15220     15223     15224
     15221     15220     15223     15225     15221     15220     15223     15226
     15222     15220     15223     15224     15222     15220     15223     15225
     15222     15220     15223     15226     15223     15226     15229     15230
     15223     15226     15229     15231     15223     15226     15229     15232
     15224     15223     15226     15227     15224     15223     15226     15228
     15224     15223     15226     15229     15225     15223     15226     15227
     15225     15223     15226     15228     15225     15223     15226     15229
     15226     15229     15232     15233     15226     15229     15232     15234
     15226     15229     15232     15235     15227     15226     15229     15230
     15227     15226     15229     15231     15227     15226     15229     15232
     15228     15226     15229     15230     15228     15226     15229     15231
     15228     15226     15229     15232     15229     15232     15235     15236
     15229     15232     15235     15237     15229     15232     15235     15238
     15230     15229     15232     15233     15230     15229     15232     15234
     15230     15229     15232     15235     15231     15229     15232     15233
     15231     15229     15232     15234     15231     15229     15232     15235
     15232     15235     15238     15239     15232     15235     15238     15240
     15233     15232     15235     15236     15233     15232     15235     15237
     15233     15232     15235     15238     15234     15232     15235     15236
     15234     15232     15235     15237     15234     15232     15235     15238
     15235     15238     15240     15241     15235     15238     15240     15242
     15236     15235     15238     15239     15236     15235     15238     15240
     15237     15235     15238     15239     15237     15235     15238     15240
     15238     15240     15242     15243     15238     15240     15242     15244
     15238     15240     15242     15245     15239     15238     15240     15241
     15239     15238     15240     15242     15240     15242     15245     15246
     15240     15242     15245     15247     15240     15242     15245     15248
     15241     15240     15242     15243     15241     15240     15242     15244
     15241     15240     15242     15245     15242     15245     15248     15249
     15242     15245     15248     15250     15242     15245     15248     15251
     15243     15242     15245     15246     15243     15242     15245     15247
     15243     15242     15245     15248     15244     15242     15245     15246
     15244     15242     15245     15247     15244     15242     15245     15248
     15245     15248     15251     15252     15245     15248     15251     15253
     15245     15248     15251     15254     15246     15245     15248     15249
     15246     15245     15248     15250     15246     15245     15248     15251
     15247     15245     15248     15249     15247     15245     15248     15250
     15247     15245     15248     15251     15248     15251     15254     15255
     15248     15251     15254     15256     15248     15251     15254     15257
     15249     15248     15251     15252     15249     15248     15251     15253
     15249     15248     15251     15254     15250     15248     15251     15252
     15250     15248     15251     15253     15250     15248     15251     15254
     15251     15254     15257     15258     15251     15254     15257     15259
     15251     15254     15257     15260     15252     15251     15254     15255
     15252     15251     15254     15256     15252     15251     15254     15257
     15253     15251     15254     15255     15253     15251     15254     15256
     15253     15251     15254     15257     15254     15257     15260     15261
     15254     15257     15260     15262     15254     15257     15260     15263
     15255     15254     15257     15258     15255     15254     15257     15259
     15255     15254     15257     15260     15256     15254     15257     15258
     15256     15254     15257     15259     15256     15254     15257     15260
     15257     15260     15263     15264     15257     15260     15263     15265
     15257     15260     15263     15266     15258     15257     15260     15261
     15258     15257     15260     15262     15258     15257     15260     15263
     15259     15257     15260     15261     15259     15257     15260     15262
     15259     15257     15260     15263     15261     15260     15263     15264
     15261     15260     15263     15265     15261     15260     15263     15266
     15262     15260     15263     15264     15262     15260     15263     15265
     15262     15260     15263     15266     15267     15268     15283     15284
     15267     15268     15283     15285     15267     15268     15283     15289
     15268     15267     15271     15272     15268     15267     15271     15273
     15268     15267     15271     15274     15268     15267     15275     15276
     15268     15267     15275     15277     15268     15267     15275     15278
     15268     15267     15279     15280     15268     15267     15279     15281
     15268     15267     15279     15282     15268     15283     15289     15286
     15269     15268     15267     15271     15269     15268     15267     15275
     15269     15268     15267     15279     15269     15268     15283     15284
     15269     15268     15283     15285     15269     15268     15283     15289
     15270     15268     15267     15271     15270     15268     15267     15275
     15270     15268     15267     15279     15270     15268     15283     15284
     15270     15268     15283     15285     15270     15268     15283     15289
     15271     15267     15268     15283     15271     15267     15275     15276
     15271     15267     15275     15277     15271     15267     15275     15278
     15271     15267     15279     15280     15271     15267     15279     15281
     15271     15267     15279     15282     15272     15271     15267     15275
     15272     15271     15267     15279     15273     15271     15267     15275
     15273     15271     15267     15279     15274     15271     15267     15275
     15274     15271     15267     15279     15275     15267     15268     15283
     15275     15267     15279     15280     15275     15267     15279     15281
     15275     15267     15279     15282     15276     15275     15267     15279
     15277     15275     15267     15279     15278     15275     15267     15279
     15279     15267     15268     15283     15283     15289     15286     15287
     15283     15289     15286     15288     15283     15289     15286     15290
     15284     15283     15289     15286     15285     15283     15289     15286
     15286     15290     15291     15292     15286     15290     15291     15293
     15286     15290     15291     15294     15287     15286     15290     15291
     15288     15286     15290     15291     15289     15286     15290     15291
     15290     15291     15294     15295     15290     15291     15294     15296
     15290     15291     15294     15302     15291     15294     15296     15297
     15291     15294     15302     15303     15291     15294     15302     15304
     15291     15294     15302     15305     15292     15291     15294     15295
     15292     15291     15294     15296     15292     15291     15294     15302
     15293     15291     15294     15295     15293     15291     15294     15296
     15293     15291     15294     15302     15294     15296     15297     15298
     15294     15296     15297     15299     15294     15302     15305     15306
     15295     15294     15296     15297     15295     15294     15302     15303
     15295     15294     15302     15304     15295     15294     15302     15305
     15296     15294     15302     15303     15296     15294     15302     15304
     15296     15294     15302     15305     15296     15297     15299     15300
     15296     15297     15299     15301     15296     15297     15299     15311
     15297     15296     15294     15302     15297     15299     15311     15312
     15297     15299     15311     15313     15297     15299     15311     15314
     15298     15297     15299     15300     15298     15297     15299     15301
     15298     15297     15299     15311     15299     15311     15314     15315
     15299     15311     15314     15316     15299     15311     15314     15317
     15300     15299     15311     15312     15300     15299     15311     15313
     15300     15299     15311     15314     15301     15299     15311     15312
     15301     15299     15311     15313     15301     15299     15311     15314
     15302     15305     15306     15307     15302     15305     15306     15308
     15303     15302     15305     15306     15304     15302     15305     15306
     15305     15306     15308     15309     15305     15306     15308     15310
     15305     15306     15308     15358     15306     15308     15358     15359
     15306     15308     15358     15360     15306     15308     15358     15361
     15307     15306     15308     15309     15307     15306     15308     15310
     15307     15306     15308     15358     15308     15358     15361     15362
     15308     15358     15361     15363     15308     15358     15361     15364
     15309     15308     15358     15359     15309     15308     15358     15360
     15309     15308     15358     15361     15310     15308     15358     15359
     15310     15308     15358     15360     15310     15308     15358     15361
     15311     15314     15317     15318     15311     15314     15317     15319
     15311     15314     15317     15320     15312     15311     15314     15315
     15312     15311     15314     15316     15312     15311     15314     15317
     15313     15311     15314     15315     15313     15311     15314     15316
     15313     15311     15314     15317     15314     15317     15320     15321
     15314     15317     15320     15322     15314     15317     15320     15323
     15315     15314     15317     15318     15315     15314     15317     15319
     15315     15314     15317     15320     15316     15314     15317     15318
     15316     15314     15317     15319     15316     15314     15317     15320
     15317     15320     15323     15324     15317     15320     15323     15325
     15317     15320     15323     15326     15318     15317     15320     15321
     15318     15317     15320     15322     15318     15317     15320     15323
     15319     15317     15320     15321     15319     15317     15320     15322
     15319     15317     15320     15323     15320     15323     15326     15327
     15320     15323     15326     15328     15320     15323     15326     15329
     15321     15320     15323     15324     15321     15320     15323     15325
     15321     15320     15323     15326     15322     15320     15323     15324
     15322     15320     15323     15325     15322     15320     15323     15326
     15323     15326     15329     15330     15323     15326     15329     15331
     15324     15323     15326     15327     15324     15323     15326     15328
     15324     15323     15326     15329     15325     15323     15326     15327
     15325     15323     15326     15328     15325     15323     15326     15329
     15326     15329     15331     15332     15326     15329     15331     15333
     15327     15326     15329     15330     15327     15326     15329     15331
     15328     15326     15329     15330     15328     15326     15329     15331
     15329     15331     15333     15334     15329     15331     15333     15335
     15329     15331     15333     15336     15330     15329     15331     15332
     15330     15329     15331     15333     15331     15333     15336     15337
     15331     15333     15336     15338     15331     15333     15336     15339
     15332     15331     15333     15334     15332     15331     15333     15335
     15332     15331     15333     15336     15333     15336     15339     15340
     15333     15336     15339     15341     15333     15336     15339     15342
     15334     15333     15336     15337     15334     15333     15336     15338
     15334     15333     15336     15339     15335     15333     15336     15337
     15335     15333     15336     15338     15335     15333     15336     15339
     15336     15339     15342     15343     15336     15339     15342     15344
     15336     15339     15342     15345     15337     15336     15339     15340
     15337     15336     15339     15341     15337     15336     15339     15342
     15338     15336     15339     15340     15338     15336     15339     15341
     15338     15336     15339     15342     15339     15342     15345     15346
     15339     15342     15345     15347     15339     15342     15345     15348
     15340     15339     15342     15343     15340     15339     15342     15344
     15340     15339     15342     15345     15341     15339     15342     15343
     15341     15339     15342     15344     15341     15339     15342     15345
     15342     15345     15348     15349     15342     15345     15348     15350
     15342     15345     15348     15351     15343     15342     15345     15346
     15343     15342     15345     15347     15343     15342     15345     15348
     15344     15342     15345     15346     15344     15342     15345     15347
     15344     15342     15345     15348     15345     15348     15351     15352
     15345     15348     15351     15353     15345     15348     15351     15354
     15346     15345     15348     15349     15346     15345     15348     15350
     15346     15345     15348     15351     15347     15345     15348     15349
     15347     15345     15348     15350     15347     15345     15348     15351
     15348     15351     15354     15355     15348     15351     15354     15356
     15348     15351     15354     15357     15349     15348     15351     15352
     15349     15348     15351     15353     15349     15348     15351     15354
     15350     15348     15351     15352     15350     15348     15351     15353
     15350     15348     15351     15354     15352     15351     15354     15355
     15352     15351     15354     15356     15352     15351     15354     15357
     15353     15351     15354     15355     15353     15351     15354     15356
     15353     15351     15354     15357     15358     15361     15364     15365
     15358     15361     15364     15366     15358     15361     15364     15367
     15359     15358     15361     15362     15359     15358     15361     15363
     15359     15358     15361     15364     15360     15358     15361     15362
     15360     15358     15361     15363     15360     15358     15361     15364
     15361     15364     15367     15368     15361     15364     15367     15369
     15361     15364     15367     15370     15362     15361     15364     15365
     15362     15361     15364     15366     15362     15361     15364     15367
     15363     15361     15364     15365     15363     15361     15364     15366
     15363     15361     15364     15367     15364     15367     15370     15371
     15364     15367     15370     15372     15364     15367     15370     15373
     15365     15364     15367     15368     15365     15364     15367     15369
     15365     15364     15367     15370     15366     15364     15367     15368
     15366     15364     15367     15369     15366     15364     15367     15370
     15367     15370     15373     15374     15367     15370     15373     15375
     15367     15370     15373     15376     15368     15367     15370     15371
     15368     15367     15370     15372     15368     15367     15370     15373
     15369     15367     15370     15371     15369     15367     15370     15372
     15369     15367     15370     15373     15370     15373     15376     15377
     15370     15373     15376     15378     15371     15370     15373     15374
     15371     15370     15373     15375     15371     15370     15373     15376
     15372     15370     15373     15374     15372     15370     15373     15375
     15372     15370     15373     15376     15373     15376     15378     15379
     15373     15376     15378     15380     15374     15373     15376     15377
     15374     15373     15376     15378     15375     15373     15376     15377
     15375     15373     15376     15378     15376     15378     15380     15381
     15376     15378     15380     15382     15376     15378     15380     15383
     15377     15376     15378     15379     15377     15376     15378     15380
     15378     15380     15383     15384     15378     15380     15383     15385
     15378     15380     15383     15386     15379     15378     15380     15381
     15379     15378     15380     15382     15379     15378     15380     15383
     15380     15383     15386     15387     15380     15383     15386     15388
     15380     15383     15386     15389     15381     15380     15383     15384
     15381     15380     15383     15385     15381     15380     15383     15386
     15382     15380     15383     15384     15382     15380     15383     15385
     15382     15380     15383     15386     15383     15386     15389     15390
     15383     15386     15389     15391     15383     15386     15389     15392
     15384     15383     15386     15387     15384     15383     15386     15388
     15384     15383     15386     15389     15385     15383     15386     15387
     15385     15383     15386     15388     15385     15383     15386     15389
     15386     15389     15392     15393     15386     15389     15392     15394
     15386     15389     15392     15395     15387     15386     15389     15390
     15387     15386     15389     15391     15387     15386     15389     15392
     15388     15386     15389     15390     15388     15386     15389     15391
     15388     15386     15389     15392     15389     15392     15395     15396
     15389     15392     15395     15397     15389     15392     15395     15398
     15390     15389     15392     15393     15390     15389     15392     15394
     15390     15389     15392     15395     15391     15389     15392     15393
     15391     15389     15392     15394     15391     15389     15392     15395
     15392     15395     15398     15399     15392     15395     15398     15400
     15392     15395     15398     15401     15393     15392     15395     15396
     15393     15392     15395     15397     15393     15392     15395     15398
     15394     15392     15395     15396     15394     15392     15395     15397
     15394     15392     15395     15398     15395     15398     15401     15402
     15395     15398     15401     15403     15395     15398     15401     15404
     15396     15395     15398     15399     15396     15395     15398     15400
     15396     15395     15398     15401     15397     15395     15398     15399
     15397     15395     15398     15400     15397     15395     15398     15401
     15399     15398     15401     15402     15399     15398     15401     15403
     15399     15398     15401     15404     15400     15398     15401     15402
     15400     15398     15401     15403     15400     15398     15401     15404
     15405     15406     15421     15422     15405     15406     15421     15423
     15405     15406     15421     15427     15406     15405     15409     15410
     15406     15405     15409     15411     15406     15405     15409     15412
     15406     15405     15413     15414     15406     15405     15413     15415
     15406     15405     15413     15416     15406     15405     15417     15418
     15406     15405     15417     15419     15406     15405     15417     15420
     15406     15421     15427     15424     15407     15406     15405     15409
     15407     15406     15405     15413     15407     15406     15405     15417
     15407     15406     15421     15422     15407     15406     15421     15423
     15407     15406     15421     15427     15408     15406     15405     15409
     15408     15406     15405     15413     15408     15406     15405     15417
     15408     15406     15421     15422     15408     15406     15421     15423
     15408     15406     15421     15427     15409     15405     15406     15421
     15409     15405     15413     15414     15409     15405     15413     15415
     15409     15405     15413     15416     15409     15405     15417     15418
     15409     15405     15417     15419     15409     15405     15417     15420
     15410     15409     15405     15413     15410     15409     15405     15417
     15411     15409     15405     15413     15411     15409     15405     15417
     15412     15409     15405     15413     15412     15409     15405     15417
     15413     15405     15406     15421     15413     15405     15417     15418
     15413     15405     15417     15419     15413     15405     15417     15420
     15414     15413     15405     15417     15415     15413     15405     15417
     15416     15413     15405     15417     15417     15405     15406     15421
     15421     15427     15424     15425     15421     15427     15424     15426
     15421     15427     15424     15428     15422     15421     15427     15424
     15423     15421     15427     15424     15424     15428     15429     15430
     15424     15428     15429     15431     15424     15428     15429     15432
     15425     15424     15428     15429     15426     15424     15428     15429
     15427     15424     15428     15429     15428     15429     15432     15433
     15428     15429     15432     15434     15428     15429     15432     15440
     15429     15432     15434     15435     15429     15432     15440     15441
     15429     15432     15440     15442     15429     15432     15440     15443
     15430     15429     15432     15433     15430     15429     15432     15434
     15430     15429     15432     15440     15431     15429     15432     15433
     15431     15429     15432     15434     15431     15429     15432     15440
     15432     15434     15435     15436     15432     15434     15435     15437
     15432     15440     15443     15444     15433     15432     15434     15435
     15433     15432     15440     15441     15433     15432     15440     15442
     15433     15432     15440     15443     15434     15432     15440     15441
     15434     15432     15440     15442     15434     15432     15440     15443
     15434     15435     15437     15438     15434     15435     15437     15439
     15434     15435     15437     15449     15435     15434     15432     15440
     15435     15437     15449     15450     15435     15437     15449     15451
     15435     15437     15449     15452     15436     15435     15437     15438
     15436     15435     15437     15439     15436     15435     15437     15449
     15437     15449     15452     15453     15437     15449     15452     15454
     15437     15449     15452     15455     15438     15437     15449     15450
     15438     15437     15449     15451     15438     15437     15449     15452
     15439     15437     15449     15450     15439     15437     15449     15451
     15439     15437     15449     15452     15440     15443     15444     15445
     15440     15443     15444     15446     15441     15440     15443     15444
     15442     15440     15443     15444     15443     15444     15446     15447
     15443     15444     15446     15448     15443     15444     15446     15496
     15444     15446     15496     15497     15444     15446     15496     15498
     15444     15446     15496     15499     15445     15444     15446     15447
     15445     15444     15446     15448     15445     15444     15446     15496
     15446     15496     15499     15500     15446     15496     15499     15501
     15446     15496     15499     15502     15447     15446     15496     15497
     15447     15446     15496     15498     15447     15446     15496     15499
     15448     15446     15496     15497     15448     15446     15496     15498
     15448     15446     15496     15499     15449     15452     15455     15456
     15449     15452     15455     15457     15449     15452     15455     15458
     15450     15449     15452     15453     15450     15449     15452     15454
     15450     15449     15452     15455     15451     15449     15452     15453
     15451     15449     15452     15454     15451     15449     15452     15455
     15452     15455     15458     15459     15452     15455     15458     15460
     15452     15455     15458     15461     15453     15452     15455     15456
     15453     15452     15455     15457     15453     15452     15455     15458
     15454     15452     15455     15456     15454     15452     15455     15457
     15454     15452     15455     15458     15455     15458     15461     15462
     15455     15458     15461     15463     15455     15458     15461     15464
     15456     15455     15458     15459     15456     15455     15458     15460
     15456     15455     15458     15461     15457     15455     15458     15459
     15457     15455     15458     15460     15457     15455     15458     15461
     15458     15461     15464     15465     15458     15461     15464     15466
     15458     15461     15464     15467     15459     15458     15461     15462
     15459     15458     15461     15463     15459     15458     15461     15464
     15460     15458     15461     15462     15460     15458     15461     15463
     15460     15458     15461     15464     15461     15464     15467     15468
     15461     15464     15467     15469     15462     15461     15464     15465
     15462     15461     15464     15466     15462     15461     15464     15467
     15463     15461     15464     15465     15463     15461     15464     15466
     15463     15461     15464     15467     15464     15467     15469     15470
     15464     15467     15469     15471     15465     15464     15467     15468
     15465     15464     15467     15469     15466     15464     15467     15468
     15466     15464     15467     15469     15467     15469     15471     15472
     15467     15469     15471     15473     15467     15469     15471     15474
     15468     15467     15469     15470     15468     15467     15469     15471
     15469     15471     15474     15475     15469     15471     15474     15476
     15469     15471     15474     15477     15470     15469     15471     15472
     15470     15469     15471     15473     15470     15469     15471     15474
     15471     15474     15477     15478     15471     15474     15477     15479
     15471     15474     15477     15480     15472     15471     15474     15475
     15472     15471     15474     15476     15472     15471     15474     15477
     15473     15471     15474     15475     15473     15471     15474     15476
     15473     15471     15474     15477     15474     15477     15480     15481
     15474     15477     15480     15482     15474     15477     15480     15483
     15475     15474     15477     15478     15475     15474     15477     15479
     15475     15474     15477     15480     15476     15474     15477     15478
     15476     15474     15477     15479     15476     15474     15477     15480
     15477     15480     15483     15484     15477     15480     15483     15485
     15477     15480     15483     15486     15478     15477     15480     15481
     15478     15477     15480     15482     15478     15477     15480     15483
     15479     15477     15480     15481     15479     15477     15480     15482
     15479     15477     15480     15483     15480     15483     15486     15487
     15480     15483     15486     15488     15480     15483     15486     15489
     15481     15480     15483     15484     15481     15480     15483     15485
     15481     15480     15483     15486     15482     15480     15483     15484
     15482     15480     15483     15485     15482     15480     15483     15486
     15483     15486     15489     15490     15483     15486     15489     15491
     15483     15486     15489     15492     15484     15483     15486     15487
     15484     15483     15486     15488     15484     15483     15486     15489
     15485     15483     15486     15487     15485     15483     15486     15488
     15485     15483     15486     15489     15486     15489     15492     15493
     15486     15489     15492     15494     15486     15489     15492     15495
     15487     15486     15489     15490     15487     15486     15489     15491
     15487     15486     15489     15492     15488     15486     15489     15490
     15488     15486     15489     15491     15488     15486     15489     15492
     15490     15489     15492     15493     15490     15489     15492     15494
     15490     15489     15492     15495     15491     15489     15492     15493
     15491     15489     15492     15494     15491     15489     15492     15495
     15496     15499     15502     15503     15496     15499     15502     15504
     15496     15499     15502     15505     15497     15496     15499     15500
     15497     15496     15499     15501     15497     15496     15499     15502
     15498     15496     15499     15500     15498     15496     15499     15501
     15498     15496     15499     15502     15499     15502     15505     15506
     15499     15502     15505     15507     15499     15502     15505     15508
     15500     15499     15502     15503     15500     15499     15502     15504
     15500     15499     15502     15505     15501     15499     15502     15503
     15501     15499     15502     15504     15501     15499     15502     15505
     15502     15505     15508     15509     15502     15505     15508     15510
     15502     15505     15508     15511     15503     15502     15505     15506
     15503     15502     15505     15507     15503     15502     15505     15508
     15504     15502     15505     15506     15504     15502     15505     15507
     15504     15502     15505     15508     15505     15508     15511     15512
     15505     15508     15511     15513     15505     15508     15511     15514
     15506     15505     15508     15509     15506     15505     15508     15510
     15506     15505     15508     15511     15507     15505     15508     15509
     15507     15505     15508     15510     15507     15505     15508     15511
     15508     15511     15514     15515     15508     15511     15514     15516
     15509     15508     15511     15512     15509     15508     15511     15513
     15509     15508     15511     15514     15510     15508     15511     15512
     15510     15508     15511     15513     15510     15508     15511     15514
     15511     15514     15516     15517     15511     15514     15516     15518
     15512     15511     15514     15515     15512     15511     15514     15516
     15513     15511     15514     15515     15513     15511     15514     15516
     15514     15516     15518     15519     15514     15516     15518     15520
     15514     15516     15518     15521     15515     15514     15516     15517
     15515     15514     15516     15518     15516     15518     15521     15522
     15516     15518     15521     15523     15516     15518     15521     15524
     15517     15516     15518     15519     15517     15516     15518     15520
     15517     15516     15518     15521     15518     15521     15524     15525
     15518     15521     15524     15526     15518     15521     15524     15527
     15519     15518     15521     15522     15519     15518     15521     15523
     15519     15518     15521     15524     15520     15518     15521     15522
     15520     15518     15521     15523     15520     15518     15521     15524
     15521     15524     15527     15528     15521     15524     15527     15529
     15521     15524     15527     15530     15522     15521     15524     15525
     15522     15521     15524     15526     15522     15521     15524     15527
     15523     15521     15524     15525     15523     15521     15524     15526
     15523     15521     15524     15527     15524     15527     15530     15531
     15524     15527     15530     15532     15524     15527     15530     15533
     15525     15524     15527     15528     15525     15524     15527     15529
     15525     15524     15527     15530     15526     15524     15527     15528
     15526     15524     15527     15529     15526     15524     15527     15530
     15527     15530     15533     15534     15527     15530     15533     15535
     15527     15530     15533     15536     15528     15527     15530     15531
     15528     15527     15530     15532     15528     15527     15530     15533
     15529     15527     15530     15531     15529     15527     15530     15532
     15529     15527     15530     15533     15530     15533     15536     15537
     15530     15533     15536     15538     15530     15533     15536     15539
     15531     15530     15533     15534     15531     15530     15533     15535
     15531     15530     15533     15536     15532     15530     15533     15534
     15532     15530     15533     15535     15532     15530     15533     15536
     15533     15536     15539     15540     15533     15536     15539     15541
     15533     15536     15539     15542     15534     15533     15536     15537
     15534     15533     15536     15538     15534     15533     15536     15539
     15535     15533     15536     15537     15535     15533     15536     15538
     15535     15533     15536     15539     15537     15536     15539     15540
     15537     15536     15539     15541     15537     15536     15539     15542
     15538     15536     15539     15540     15538     15536     15539     15541
     15538     15536     15539     15542     15543     15544     15559     15560
     15543     15544     15559     15561     15543     15544     15559     15565
     15544     15543     15547     15548     15544     15543     15547     15549
     15544     15543     15547     15550     15544     15543     15551     15552
     15544     15543     15551     15553     15544     15543     15551     15554
     15544     15543     15555     15556     15544     15543     15555     15557
     15544     15543     15555     15558     15544     15559     15565     15562
     15545     15544     15543     15547     15545     15544     15543     15551
     15545     15544     15543     15555     15545     15544     15559     15560
     15545     15544     15559     15561     15545     15544     15559     15565
     15546     15544     15543     15547     15546     15544     15543     15551
     15546     15544     15543     15555     15546     15544     15559     15560
     15546     15544     15559     15561     15546     15544     15559     15565
     15547     15543     15544     15559     15547     15543     15551     15552
     15547     15543     15551     15553     15547     15543     15551     15554
     15547     15543     15555     15556     15547     15543     15555     15557
     15547     15543     15555     15558     15548     15547     15543     15551
     15548     15547     15543     15555     15549     15547     15543     15551
     15549     15547     15543     15555     15550     15547     15543     15551
     15550     15547     15543     15555     15551     15543     15544     15559
     15551     15543     15555     15556     15551     15543     15555     15557
     15551     15543     15555     15558     15552     15551     15543     15555
     15553     15551     15543     15555     15554     15551     15543     15555
     15555     15543     15544     15559     15559     15565     15562     15563
     15559     15565     15562     15564     15559     15565     15562     15566
     15560     15559     15565     15562     15561     15559     15565     15562
     15562     15566     15567     15568     15562     15566     15567     15569
     15562     15566     15567     15570     15563     15562     15566     15567
     15564     15562     15566     15567     15565     15562     15566     15567
     15566     15567     15570     15571     15566     15567     15570     15572
     15566     15567     15570     15578     15567     15570     15572     15573
     15567     15570     15578     15579     15567     15570     15578     15580
     15567     15570     15578     15581     15568     15567     15570     15571
     15568     15567     15570     15572     15568     15567     15570     15578
     15569     15567     15570     15571     15569     15567     15570     15572
     15569     15567     15570     15578     15570     15572     15573     15574
     15570     15572     15573     15575     15570     15578     15581     15582
     15571     15570     15572     15573     15571     15570     15578     15579
     15571     15570     15578     15580     15571     15570     15578     15581
     15572     15570     15578     15579     15572     15570     15578     15580
     15572     15570     15578     15581     15572     15573     15575     15576
     15572     15573     15575     15577     15572     15573     15575     15587
     15573     15572     15570     15578     15573     15575     15587     15588
     15573     15575     15587     15589     15573     15575     15587     15590
     15574     15573     15575     15576     15574     15573     15575     15577
     15574     15573     15575     15587     15575     15587     15590     15591
     15575     15587     15590     15592     15575     15587     15590     15593
     15576     15575     15587     15588     15576     15575     15587     15589
     15576     15575     15587     15590     15577     15575     15587     15588
     15577     15575     15587     15589     15577     15575     15587     15590
     15578     15581     15582     15583     15578     15581     15582     15584
     15579     15578     15581     15582     15580     15578     15581     15582
     15581     15582     15584     15585     15581     15582     15584     15586
     15581     15582     15584     15634     15582     15584     15634     15635
     15582     15584     15634     15636     15582     15584     15634     15637
     15583     15582     15584     15585     15583     15582     15584     15586
     15583     15582     15584     15634     15584     15634     15637     15638
     15584     15634     15637     15639     15584     15634     15637     15640
     15585     15584     15634     15635     15585     15584     15634     15636
     15585     15584     15634     15637     15586     15584     15634     15635
     15586     15584     15634     15636     15586     15584     15634     15637
     15587     15590     15593     15594     15587     15590     15593     15595
     15587     15590     15593     15596     15588     15587     15590     15591
     15588     15587     15590     15592     15588     15587     15590     15593
     15589     15587     15590     15591     15589     15587     15590     15592
     15589     15587     15590     15593     15590     15593     15596     15597
     15590     15593     15596     15598     15590     15593     15596     15599
     15591     15590     15593     15594     15591     15590     15593     15595
     15591     15590     15593     15596     15592     15590     15593     15594
     15592     15590     15593     15595     15592     15590     15593     15596
     15593     15596     15599     15600     15593     15596     15599     15601
     15593     15596     15599     15602     15594     15593     15596     15597
     15594     15593     15596     15598     15594     15593     15596     15599
     15595     15593     15596     15597     15595     15593     15596     15598
     15595     15593     15596     15599     15596     15599     15602     15603
     15596     15599     15602     15604     15596     15599     15602     15605
     15597     15596     15599     15600     15597     15596     15599     15601
     15597     15596     15599     15602     15598     15596     15599     15600
     15598     15596     15599     15601     15598     15596     15599     15602
     15599     15602     15605     15606     15599     15602     15605     15607
     15600     15599     15602     15603     15600     15599     15602     15604
     15600     15599     15602     15605     15601     15599     15602     15603
     15601     15599     15602     15604     15601     15599     15602     15605
     15602     15605     15607     15608     15602     15605     15607     15609
     15603     15602     15605     15606     15603     15602     15605     15607
     15604     15602     15605     15606     15604     15602     15605     15607
     15605     15607     15609     15610     15605     15607     15609     15611
     15605     15607     15609     15612     15606     15605     15607     15608
     15606     15605     15607     15609     15607     15609     15612     15613
     15607     15609     15612     15614     15607     15609     15612     15615
     15608     15607     15609     15610     15608     15607     15609     15611
     15608     15607     15609     15612     15609     15612     15615     15616
     15609     15612     15615     15617     15609     15612     15615     15618
     15610     15609     15612     15613     15610     15609     15612     15614
     15610     15609     15612     15615     15611     15609     15612     15613
     15611     15609     15612     15614     15611     15609     15612     15615
     15612     15615     15618     15619     15612     15615     15618     15620
     15612     15615     15618     15621     15613     15612     15615     15616
     15613     15612     15615     15617     15613     15612     15615     15618
     15614     15612     15615     15616     15614     15612     15615     15617
     15614     15612     15615     15618     15615     15618     15621     15622
     15615     15618     15621     15623     15615     15618     15621     15624
     15616     15615     15618     15619     15616     15615     15618     15620
     15616     15615     15618     15621     15617     15615     15618     15619
     15617     15615     15618     15620     15617     15615     15618     15621
     15618     15621     15624     15625     15618     15621     15624     15626
     15618     15621     15624     15627     15619     15618     15621     15622
     15619     15618     15621     15623     15619     15618     15621     15624
     15620     15618     15621     15622     15620     15618     15621     15623
     15620     15618     15621     15624     15621     15624     15627     15628
     15621     15624     15627     15629     15621     15624     15627     15630
     15622     15621     15624     15625     15622     15621     15624     15626
     15622     15621     15624     15627     15623     15621     15624     15625
     15623     15621     15624     15626     15623     15621     15624     15627
     15624     15627     15630     15631     15624     15627     15630     15632
     15624     15627     15630     15633     15625     15624     15627     15628
     15625     15624     15627     15629     15625     15624     15627     15630
     15626     15624     15627     15628     15626     15624     15627     15629
     15626     15624     15627     15630     15628     15627     15630     15631
     15628     15627     15630     15632     15628     15627     15630     15633
     15629     15627     15630     15631     15629     15627     15630     15632
     15629     15627     15630     15633     15634     15637     15640     15641
     15634     15637     15640     15642     15634     15637     15640     15643
     15635     15634     15637     15638     15635     15634     15637     15639
     15635     15634     15637     15640     15636     15634     15637     15638
     15636     15634     15637     15639     15636     15634     15637     15640
     15637     15640     15643     15644     15637     15640     15643     15645
     15637     15640     15643     15646     15638     15637     15640     15641
     15638     15637     15640     15642     15638     15637     15640     15643
     15639     15637     15640     15641     15639     15637     15640     15642
     15639     15637     15640     15643     15640     15643     15646     15647
     15640     15643     15646     15648     15640     15643     15646     15649
     15641     15640     15643     15644     15641     15640     15643     15645
     15641     15640     15643     15646     15642     15640     15643     15644
     15642     15640     15643     15645     15642     15640     15643     15646
     15643     15646     15649     15650     15643     15646     15649     15651
     15643     15646     15649     15652     15644     15643     15646     15647
     15644     15643     15646     15648     15644     15643     15646     15649
     15645     15643     15646     15647     15645     15643     15646     15648
     15645     15643     15646     15649     15646     15649     15652     15653
     15646     15649     15652     15654     15647     15646     15649     15650
     15647     15646     15649     15651     15647     15646     15649     15652
     15648     15646     15649     15650     15648     15646     15649     15651
     15648     15646     15649     15652     15649     15652     15654     15655
     15649     15652     15654     15656     15650     15649     15652     15653
     15650     15649     15652     15654     15651     15649     15652     15653
     15651     15649     15652     15654     15652     15654     15656     15657
     15652     15654     15656     15658     15652     15654     15656     15659
     15653     15652     15654     15655     15653     15652     15654     15656
     15654     15656     15659     15660     15654     15656     15659     15661
     15654     15656     15659     15662     15655     15654     15656     15657
     15655     15654     15656     15658     15655     15654     15656     15659
     15656     15659     15662     15663     15656     15659     15662     15664
     15656     15659     15662     15665     15657     15656     15659     15660
     15657     15656     15659     15661     15657     15656     15659     15662
     15658     15656     15659     15660     15658     15656     15659     15661
     15658     15656     15659     15662     15659     15662     15665     15666
     15659     15662     15665     15667     15659     15662     15665     15668
     15660     15659     15662     15663     15660     15659     15662     15664
     15660     15659     15662     15665     15661     15659     15662     15663
     15661     15659     15662     15664     15661     15659     15662     15665
     15662     15665     15668     15669     15662     15665     15668     15670
     15662     15665     15668     15671     15663     15662     15665     15666
     15663     15662     15665     15667     15663     15662     15665     15668
     15664     15662     15665     15666     15664     15662     15665     15667
     15664     15662     15665     15668     15665     15668     15671     15672
     15665     15668     15671     15673     15665     15668     15671     15674
     15666     15665     15668     15669     15666     15665     15668     15670
     15666     15665     15668     15671     15667     15665     15668     15669
     15667     15665     15668     15670     15667     15665     15668     15671
     15668     15671     15674     15675     15668     15671     15674     15676
     15668     15671     15674     15677     15669     15668     15671     15672
     15669     15668     15671     15673     15669     15668     15671     15674
     15670     15668     15671     15672     15670     15668     15671     15673
     15670     15668     15671     15674     15671     15674     15677     15678
     15671     15674     15677     15679     15671     15674     15677     15680
     15672     15671     15674     15675     15672     15671     15674     15676
     15672     15671     15674     15677     15673     15671     15674     15675
     15673     15671     15674     15676     15673     15671     15674     15677
     15675     15674     15677     15678     15675     15674     15677     15679
     15675     15674     15677     15680     15676     15674     15677     15678
     15676     15674     15677     15679     15676     15674     15677     15680
     15681     15682     15697     15698     15681     15682     15697     15699
     15681     15682     15697     15703     15682     15681     15685     15686
     15682     15681     15685     15687     15682     15681     15685     15688
     15682     15681     15689     15690     15682     15681     15689     15691
     15682     15681     15689     15692     15682     15681     15693     15694
     15682     15681     15693     15695     15682     15681     15693     15696
     15682     15697     15703     15700     15683     15682     15681     15685
     15683     15682     15681     15689     15683     15682     15681     15693
     15683     15682     15697     15698     15683     15682     15697     15699
     15683     15682     15697     15703     15684     15682     15681     15685
     15684     15682     15681     15689     15684     15682     15681     15693
     15684     15682     15697     15698     15684     15682     15697     15699
     15684     15682     15697     15703     15685     15681     15682     15697
     15685     15681     15689     15690     15685     15681     15689     15691
     15685     15681     15689     15692     15685     15681     15693     15694
     15685     15681     15693     15695     15685     15681     15693     15696
     15686     15685     15681     15689     15686     15685     15681     15693
     15687     15685     15681     15689     15687     15685     15681     15693
     15688     15685     15681     15689     15688     15685     15681     15693
     15689     15681     15682     15697     15689     15681     15693     15694
     15689     15681     15693     15695     15689     15681     15693     15696
     15690     15689     15681     15693     15691     15689     15681     15693
     15692     15689     15681     15693     15693     15681     15682     15697
     15697     15703     15700     15701     15697     15703     15700     15702
     15697     15703     15700     15704     15698     15697     15703     15700
     15699     15697     15703     15700     15700     15704     15705     15706
     15700     15704     15705     15707     15700     15704     15705     15708
     15701     15700     15704     15705     15702     15700     15704     15705
     15703     15700     15704     15705     15704     15705     15708     15709
     15704     15705     15708     15710     15704     15705     15708     15716
     15705     15708     15710     15711     15705     15708     15716     15717
     15705     15708     15716     15718     15705     15708     15716     15719
     15706     15705     15708     15709     15706     15705     15708     15710
     15706     15705     15708     15716     15707     15705     15708     15709
     15707     15705     15708     15710     15707     15705     15708     15716
     15708     15710     15711     15712     15708     15710     15711     15713
     15708     15716     15719     15720     15709     15708     15710     15711
     15709     15708     15716     15717     15709     15708     15716     15718
     15709     15708     15716     15719     15710     15708     15716     15717
     15710     15708     15716     15718     15710     15708     15716     15719
     15710     15711     15713     15714     15710     15711     15713     15715
     15710     15711     15713     15725     15711     15710     15708     15716
     15711     15713     15725     15726     15711     15713     15725     15727
     15711     15713     15725     15728     15712     15711     15713     15714
     15712     15711     15713     15715     15712     15711     15713     15725
     15713     15725     15728     15729     15713     15725     15728     15730
     15713     15725     15728     15731     15714     15713     15725     15726
     15714     15713     15725     15727     15714     15713     15725     15728
     15715     15713     15725     15726     15715     15713     15725     15727
     15715     15713     15725     15728     15716     15719     15720     15721
     15716     15719     15720     15722     15717     15716     15719     15720
     15718     15716     15719     15720     15719     15720     15722     15723
     15719     15720     15722     15724     15719     15720     15722     15772
     15720     15722     15772     15773     15720     15722     15772     15774
     15720     15722     15772     15775     15721     15720     15722     15723
     15721     15720     15722     15724     15721     15720     15722     15772
     15722     15772     15775     15776     15722     15772     15775     15777
     15722     15772     15775     15778     15723     15722     15772     15773
     15723     15722     15772     15774     15723     15722     15772     15775
     15724     15722     15772     15773     15724     15722     15772     15774
     15724     15722     15772     15775     15725     15728     15731     15732
     15725     15728     15731     15733     15725     15728     15731     15734
     15726     15725     15728     15729     15726     15725     15728     15730
     15726     15725     15728     15731     15727     15725     15728     15729
     15727     15725     15728     15730     15727     15725     15728     15731
     15728     15731     15734     15735     15728     15731     15734     15736
     15728     15731     15734     15737     15729     15728     15731     15732
     15729     15728     15731     15733     15729     15728     15731     15734
     15730     15728     15731     15732     15730     15728     15731     15733
     15730     15728     15731     15734     15731     15734     15737     15738
     15731     15734     15737     15739     15731     15734     15737     15740
     15732     15731     15734     15735     15732     15731     15734     15736
     15732     15731     15734     15737     15733     15731     15734     15735
     15733     15731     15734     15736     15733     15731     15734     15737
     15734     15737     15740     15741     15734     15737     15740     15742
     15734     15737     15740     15743     15735     15734     15737     15738
     15735     15734     15737     15739     15735     15734     15737     15740
     15736     15734     15737     15738     15736     15734     15737     15739
     15736     15734     15737     15740     15737     15740     15743     15744
     15737     15740     15743     15745     15738     15737     15740     15741
     15738     15737     15740     15742     15738     15737     15740     15743
     15739     15737     15740     15741     15739     15737     15740     15742
     15739     15737     15740     15743     15740     15743     15745     15746
     15740     15743     15745     15747     15741     15740     15743     15744
     15741     15740     15743     15745     15742     15740     15743     15744
     15742     15740     15743     15745     15743     15745     15747     15748
     15743     15745     15747     15749     15743     15745     15747     15750
     15744     15743     15745     15746     15744     15743     15745     15747
     15745     15747     15750     15751     15745     15747     15750     15752
     15745     15747     15750     15753     15746     15745     15747     15748
     15746     15745     15747     15749     15746     15745     15747     15750
     15747     15750     15753     15754     15747     15750     15753     15755
     15747     15750     15753     15756     15748     15747     15750     15751
     15748     15747     15750     15752     15748     15747     15750     15753
     15749     15747     15750     15751     15749     15747     15750     15752
     15749     15747     15750     15753     15750     15753     15756     15757
     15750     15753     15756     15758     15750     15753     15756     15759
     15751     15750     15753     15754     15751     15750     15753     15755
     15751     15750     15753     15756     15752     15750     15753     15754
     15752     15750     15753     15755     15752     15750     15753     15756
     15753     15756     15759     15760     15753     15756     15759     15761
     15753     15756     15759     15762     15754     15753     15756     15757
     15754     15753     15756     15758     15754     15753     15756     15759
     15755     15753     15756     15757     15755     15753     15756     15758
     15755     15753     15756     15759     15756     15759     15762     15763
     15756     15759     15762     15764     15756     15759     15762     15765
     15757     15756     15759     15760     15757     15756     15759     15761
     15757     15756     15759     15762     15758     15756     15759     15760
     15758     15756     15759     15761     15758     15756     15759     15762
     15759     15762     15765     15766     15759     15762     15765     15767
     15759     15762     15765     15768     15760     15759     15762     15763
     15760     15759     15762     15764     15760     15759     15762     15765
     15761     15759     15762     15763     15761     15759     15762     15764
     15761     15759     15762     15765     15762     15765     15768     15769
     15762     15765     15768     15770     15762     15765     15768     15771
     15763     15762     15765     15766     15763     15762     15765     15767
     15763     15762     15765     15768     15764     15762     15765     15766
     15764     15762     15765     15767     15764     15762     15765     15768
     15766     15765     15768     15769     15766     15765     15768     15770
     15766     15765     15768     15771     15767     15765     15768     15769
     15767     15765     15768     15770     15767     15765     15768     15771
     15772     15775     15778     15779     15772     15775     15778     15780
     15772     15775     15778     15781     15773     15772     15775     15776
     15773     15772     15775     15777     15773     15772     15775     15778
     15774     15772     15775     15776     15774     15772     15775     15777
     15774     15772     15775     15778     15775     15778     15781     15782
     15775     15778     15781     15783     15775     15778     15781     15784
     15776     15775     15778     15779     15776     15775     15778     15780
     15776     15775     15778     15781     15777     15775     15778     15779
     15777     15775     15778     15780     15777     15775     15778     15781
     15778     15781     15784     15785     15778     15781     15784     15786
     15778     15781     15784     15787     15779     15778     15781     15782
     15779     15778     15781     15783     15779     15778     15781     15784
     15780     15778     15781     15782     15780     15778     15781     15783
     15780     15778     15781     15784     15781     15784     15787     15788
     15781     15784     15787     15789     15781     15784     15787     15790
     15782     15781     15784     15785     15782     15781     15784     15786
     15782     15781     15784     15787     15783     15781     15784     15785
     15783     15781     15784     15786     15783     15781     15784     15787
     15784     15787     15790     15791     15784     15787     15790     15792
     15785     15784     15787     15788     15785     15784     15787     15789
     15785     15784     15787     15790     15786     15784     15787     15788
     15786     15784     15787     15789     15786     15784     15787     15790
     15787     15790     15792     15793     15787     15790     15792     15794
     15788     15787     15790     15791     15788     15787     15790     15792
     15789     15787     15790     15791     15789     15787     15790     15792
     15790     15792     15794     15795     15790     15792     15794     15796
     15790     15792     15794     15797     15791     15790     15792     15793
     15791     15790     15792     15794     15792     15794     15797     15798
     15792     15794     15797     15799     15792     15794     15797     15800
     15793     15792     15794     15795     15793     15792     15794     15796
     15793     15792     15794     15797     15794     15797     15800     15801
     15794     15797     15800     15802     15794     15797     15800     15803
     15795     15794     15797     15798     15795     15794     15797     15799
     15795     15794     15797     15800     15796     15794     15797     15798
     15796     15794     15797     15799     15796     15794     15797     15800
     15797     15800     15803     15804     15797     15800     15803     15805
     15797     15800     15803     15806     15798     15797     15800     15801
     15798     15797     15800     15802     15798     15797     15800     15803
     15799     15797     15800     15801     15799     15797     15800     15802
     15799     15797     15800     15803     15800     15803     15806     15807
     15800     15803     15806     15808     15800     15803     15806     15809
     15801     15800     15803     15804     15801     15800     15803     15805
     15801     15800     15803     15806     15802     15800     15803     15804
     15802     15800     15803     15805     15802     15800     15803     15806
     15803     15806     15809     15810     15803     15806     15809     15811
     15803     15806     15809     15812     15804     15803     15806     15807
     15804     15803     15806     15808     15804     15803     15806     15809
     15805     15803     15806     15807     15805     15803     15806     15808
     15805     15803     15806     15809     15806     15809     15812     15813
     15806     15809     15812     15814     15806     15809     15812     15815
     15807     15806     15809     15810     15807     15806     15809     15811
     15807     15806     15809     15812     15808     15806     15809     15810
     15808     15806     15809     15811     15808     15806     15809     15812
     15809     15812     15815     15816     15809     15812     15815     15817
     15809     15812     15815     15818     15810     15809     15812     15813
     15810     15809     15812     15814     15810     15809     15812     15815
     15811     15809     15812     15813     15811     15809     15812     15814
     15811     15809     15812     15815     15813     15812     15815     15816
     15813     15812     15815     15817     15813     15812     15815     15818
     15814     15812     15815     15816     15814     15812     15815     15817
     15814     15812     15815     15818     15819     15820     15835     15836
     15819     15820     15835     15837     15819     15820     15835     15841
     15820     15819     15823     15824     15820     15819     15823     15825
     15820     15819     15823     15826     15820     15819     15827     15828
     15820     15819     15827     15829     15820     15819     15827     15830
     15820     15819     15831     15832     15820     15819     15831     15833
     15820     15819     15831     15834     15820     15835     15841     15838
     15821     15820     15819     15823     15821     15820     15819     15827
     15821     15820     15819     15831     15821     15820     15835     15836
     15821     15820     15835     15837     15821     15820     15835     15841
     15822     15820     15819     15823     15822     15820     15819     15827
     15822     15820     15819     15831     15822     15820     15835     15836
     15822     15820     15835     15837     15822     15820     15835     15841
     15823     15819     15820     15835     15823     15819     15827     15828
     15823     15819     15827     15829     15823     15819     15827     15830
     15823     15819     15831     15832     15823     15819     15831     15833
     15823     15819     15831     15834     15824     15823     15819     15827
     15824     15823     15819     15831     15825     15823     15819     15827
     15825     15823     15819     15831     15826     15823     15819     15827
     15826     15823     15819     15831     15827     15819     15820     15835
     15827     15819     15831     15832     15827     15819     15831     15833
     15827     15819     15831     15834     15828     15827     15819     15831
     15829     15827     15819     15831     15830     15827     15819     15831
     15831     15819     15820     15835     15835     15841     15838     15839
     15835     15841     15838     15840     15835     15841     15838     15842
     15836     15835     15841     15838     15837     15835     15841     15838
     15838     15842     15843     15844     15838     15842     15843     15845
     15838     15842     15843     15846     15839     15838     15842     15843
     15840     15838     15842     15843     15841     15838     15842     15843
     15842     15843     15846     15847     15842     15843     15846     15848
     15842     15843     15846     15854     15843     15846     15848     15849
     15843     15846     15854     15855     15843     15846     15854     15856
     15843     15846     15854     15857     15844     15843     15846     15847
     15844     15843     15846     15848     15844     15843     15846     15854
     15845     15843     15846     15847     15845     15843     15846     15848
     15845     15843     15846     15854     15846     15848     15849     15850
     15846     15848     15849     15851     15846     15854     15857     15858
     15847     15846     15848     15849     15847     15846     15854     15855
     15847     15846     15854     15856     15847     15846     15854     15857
     15848     15846     15854     15855     15848     15846     15854     15856
     15848     15846     15854     15857     15848     15849     15851     15852
     15848     15849     15851     15853     15848     15849     15851     15863
     15849     15848     15846     15854     15849     15851     15863     15864
     15849     15851     15863     15865     15849     15851     15863     15866
     15850     15849     15851     15852     15850     15849     15851     15853
     15850     15849     15851     15863     15851     15863     15866     15867
     15851     15863     15866     15868     15851     15863     15866     15869
     15852     15851     15863     15864     15852     15851     15863     15865
     15852     15851     15863     15866     15853     15851     15863     15864
     15853     15851     15863     15865     15853     15851     15863     15866
     15854     15857     15858     15859     15854     15857     15858     15860
     15855     15854     15857     15858     15856     15854     15857     15858
     15857     15858     15860     15861     15857     15858     15860     15862
     15857     15858     15860     15910     15858     15860     15910     15911
     15858     15860     15910     15912     15858     15860     15910     15913
     15859     15858     15860     15861     15859     15858     15860     15862
     15859     15858     15860     15910     15860     15910     15913     15914
     15860     15910     15913     15915     15860     15910     15913     15916
     15861     15860     15910     15911     15861     15860     15910     15912
     15861     15860     15910     15913     15862     15860     15910     15911
     15862     15860     15910     15912     15862     15860     15910     15913
     15863     15866     15869     15870     15863     15866     15869     15871
     15863     15866     15869     15872     15864     15863     15866     15867
     15864     15863     15866     15868     15864     15863     15866     15869
     15865     15863     15866     15867     15865     15863     15866     15868
     15865     15863     15866     15869     15866     15869     15872     15873
     15866     15869     15872     15874     15866     15869     15872     15875
     15867     15866     15869     15870     15867     15866     15869     15871
     15867     15866     15869     15872     15868     15866     15869     15870
     15868     15866     15869     15871     15868     15866     15869     15872
     15869     15872     15875     15876     15869     15872     15875     15877
     15869     15872     15875     15878     15870     15869     15872     15873
     15870     15869     15872     15874     15870     15869     15872     15875
     15871     15869     15872     15873     15871     15869     15872     15874
     15871     15869     15872     15875     15872     15875     15878     15879
     15872     15875     15878     15880     15872     15875     15878     15881
     15873     15872     15875     15876     15873     15872     15875     15877
     15873     15872     15875     15878     15874     15872     15875     15876
     15874     15872     15875     15877     15874     15872     15875     15878
     15875     15878     15881     15882     15875     15878     15881     15883
     15876     15875     15878     15879     15876     15875     15878     15880
     15876     15875     15878     15881     15877     15875     15878     15879
     15877     15875     15878     15880     15877     15875     15878     15881
     15878     15881     15883     15884     15878     15881     15883     15885
     15879     15878     15881     15882     15879     15878     15881     15883
     15880     15878     15881     15882     15880     15878     15881     15883
     15881     15883     15885     15886     15881     15883     15885     15887
     15881     15883     15885     15888     15882     15881     15883     15884
     15882     15881     15883     15885     15883     15885     15888     15889
     15883     15885     15888     15890     15883     15885     15888     15891
     15884     15883     15885     15886     15884     15883     15885     15887
     15884     15883     15885     15888     15885     15888     15891     15892
     15885     15888     15891     15893     15885     15888     15891     15894
     15886     15885     15888     15889     15886     15885     15888     15890
     15886     15885     15888     15891     15887     15885     15888     15889
     15887     15885     15888     15890     15887     15885     15888     15891
     15888     15891     15894     15895     15888     15891     15894     15896
     15888     15891     15894     15897     15889     15888     15891     15892
     15889     15888     15891     15893     15889     15888     15891     15894
     15890     15888     15891     15892     15890     15888     15891     15893
     15890     15888     15891     15894     15891     15894     15897     15898
     15891     15894     15897     15899     15891     15894     15897     15900
     15892     15891     15894     15895     15892     15891     15894     15896
     15892     15891     15894     15897     15893     15891     15894     15895
     15893     15891     15894     15896     15893     15891     15894     15897
     15894     15897     15900     15901     15894     15897     15900     15902
     15894     15897     15900     15903     15895     15894     15897     15898
     15895     15894     15897     15899     15895     15894     15897     15900
     15896     15894     15897     15898     15896     15894     15897     15899
     15896     15894     15897     15900     15897     15900     15903     15904
     15897     15900     15903     15905     15897     15900     15903     15906
     15898     15897     15900     15901     15898     15897     15900     15902
     15898     15897     15900     15903     15899     15897     15900     15901
     15899     15897     15900     15902     15899     15897     15900     15903
     15900     15903     15906     15907     15900     15903     15906     15908
     15900     15903     15906     15909     15901     15900     15903     15904
     15901     15900     15903     15905     15901     15900     15903     15906
     15902     15900     15903     15904     15902     15900     15903     15905
     15902     15900     15903     15906     15904     15903     15906     15907
     15904     15903     15906     15908     15904     15903     15906     15909
     15905     15903     15906     15907     15905     15903     15906     15908
     15905     15903     15906     15909     15910     15913     15916     15917
     15910     15913     15916     15918     15910     15913     15916     15919
     15911     15910     15913     15914     15911     15910     15913     15915
     15911     15910     15913     15916     15912     15910     15913     15914
     15912     15910     15913     15915     15912     15910     15913     15916
     15913     15916     15919     15920     15913     15916     15919     15921
     15913     15916     15919     15922     15914     15913     15916     15917
     15914     15913     15916     15918     15914     15913     15916     15919
     15915     15913     15916     15917     15915     15913     15916     15918
     15915     15913     15916     15919     15916     15919     15922     15923
     15916     15919     15922     15924     15916     15919     15922     15925
     15917     15916     15919     15920     15917     15916     15919     15921
     15917     15916     15919     15922     15918     15916     15919     15920
     15918     15916     15919     15921     15918     15916     15919     15922
     15919     15922     15925     15926     15919     15922     15925     15927
     15919     15922     15925     15928     15920     15919     15922     15923
     15920     15919     15922     15924     15920     15919     15922     15925
     15921     15919     15922     15923     15921     15919     15922     15924
     15921     15919     15922     15925     15922     15925     15928     15929
     15922     15925     15928     15930     15923     15922     15925     15926
     15923     15922     15925     15927     15923     15922     15925     15928
     15924     15922     15925     15926     15924     15922     15925     15927
     15924     15922     15925     15928     15925     15928     15930     15931
     15925     15928     15930     15932     15926     15925     15928     15929
     15926     15925     15928     15930     15927     15925     15928     15929
     15927     15925     15928     15930     15928     15930     15932     15933
     15928     15930     15932     15934     15928     15930     15932     15935
     15929     15928     15930     15931     15929     15928     15930     15932
     15930     15932     15935     15936     15930     15932     15935     15937
     15930     15932     15935     15938     15931     15930     15932     15933
     15931     15930     15932     15934     15931     15930     15932     15935
     15932     15935     15938     15939     15932     15935     15938     15940
     15932     15935     15938     15941     15933     15932     15935     15936
     15933     15932     15935     15937     15933     15932     15935     15938
     15934     15932     15935     15936     15934     15932     15935     15937
     15934     15932     15935     15938     15935     15938     15941     15942
     15935     15938     15941     15943     15935     15938     15941     15944
     15936     15935     15938     15939     15936     15935     15938     15940
     15936     15935     15938     15941     15937     15935     15938     15939
     15937     15935     15938     15940     15937     15935     15938     15941
     15938     15941     15944     15945     15938     15941     15944     15946
     15938     15941     15944     15947     15939     15938     15941     15942
     15939     15938     15941     15943     15939     15938     15941     15944
     15940     15938     15941     15942     15940     15938     15941     15943
     15940     15938     15941     15944     15941     15944     15947     15948
     15941     15944     15947     15949     15941     15944     15947     15950
     15942     15941     15944     15945     15942     15941     15944     15946
     15942     15941     15944     15947     15943     15941     15944     15945
     15943     15941     15944     15946     15943     15941     15944     15947
     15944     15947     15950     15951     15944     15947     15950     15952
     15944     15947     15950     15953     15945     15944     15947     15948
     15945     15944     15947     15949     15945     15944     15947     15950
     15946     15944     15947     15948     15946     15944     15947     15949
     15946     15944     15947     15950     15947     15950     15953     15954
     15947     15950     15953     15955     15947     15950     15953     15956
     15948     15947     15950     15951     15948     15947     15950     15952
     15948     15947     15950     15953     15949     15947     15950     15951
     15949     15947     15950     15952     15949     15947     15950     15953
     15951     15950     15953     15954     15951     15950     15953     15955
     15951     15950     15953     15956     15952     15950     15953     15954
     15952     15950     15953     15955     15952     15950     15953     15956
     15957     15958     15973     15974     15957     15958     15973     15975
     15957     15958     15973     15979     15958     15957     15961     15962
     15958     15957     15961     15963     15958     15957     15961     15964
     15958     15957     15965     15966     15958     15957     15965     15967
     15958     15957     15965     15968     15958     15957     15969     15970
     15958     15957     15969     15971     15958     15957     15969     15972
     15958     15973     15979     15976     15959     15958     15957     15961
     15959     15958     15957     15965     15959     15958     15957     15969
     15959     15958     15973     15974     15959     15958     15973     15975
     15959     15958     15973     15979     15960     15958     15957     15961
     15960     15958     15957     15965     15960     15958     15957     15969
     15960     15958     15973     15974     15960     15958     15973     15975
     15960     15958     15973     15979     15961     15957     15958     15973
     15961     15957     15965     15966     15961     15957     15965     15967
     15961     15957     15965     15968     15961     15957     15969     15970
     15961     15957     15969     15971     15961     15957     15969     15972
     15962     15961     15957     15965     15962     15961     15957     15969
     15963     15961     15957     15965     15963     15961     15957     15969
     15964     15961     15957     15965     15964     15961     15957     15969
     15965     15957     15958     15973     15965     15957     15969     15970
     15965     15957     15969     15971     15965     15957     15969     15972
     15966     15965     15957     15969     15967     15965     15957     15969
     15968     15965     15957     15969     15969     15957     15958     15973
     15973     15979     15976     15977     15973     15979     15976     15978
     15973     15979     15976     15980     15974     15973     15979     15976
     15975     15973     15979     15976     15976     15980     15981     15982
     15976     15980     15981     15983     15976     15980     15981     15984
     15977     15976     15980     15981     15978     15976     15980     15981
     15979     15976     15980     15981     15980     15981     15984     15985
     15980     15981     15984     15986     15980     15981     15984     15992
     15981     15984     15986     15987     15981     15984     15992     15993
     15981     15984     15992     15994     15981     15984     15992     15995
     15982     15981     15984     15985     15982     15981     15984     15986
     15982     15981     15984     15992     15983     15981     15984     15985
     15983     15981     15984     15986     15983     15981     15984     15992
     15984     15986     15987     15988     15984     15986     15987     15989
     15984     15992     15995     15996     15985     15984     15986     15987
     15985     15984     15992     15993     15985     15984     15992     15994
     15985     15984     15992     15995     15986     15984     15992     15993
     15986     15984     15992     15994     15986     15984     15992     15995
     15986     15987     15989     15990     15986     15987     15989     15991
     15986     15987     15989     16001     15987     15986     15984     15992
     15987     15989     16001     16002     15987     15989     16001     16003
     15987     15989     16001     16004     15988     15987     15989     15990
     15988     15987     15989     15991     15988     15987     15989     16001
     15989     16001     16004     16005     15989     16001     16004     16006
     15989     16001     16004     16007     15990     15989     16001     16002
     15990     15989     16001     16003     15990     15989     16001     16004
     15991     15989     16001     16002     15991     15989     16001     16003
     15991     15989     16001     16004     15992     15995     15996     15997
     15992     15995     15996     15998     15993     15992     15995     15996
     15994     15992     15995     15996     15995     15996     15998     15999
     15995     15996     15998     16000     15995     15996     15998     16048
     15996     15998     16048     16049     15996     15998     16048     16050
     15996     15998     16048     16051     15997     15996     15998     15999
     15997     15996     15998     16000     15997     15996     15998     16048
     15998     16048     16051     16052     15998     16048     16051     16053
     15998     16048     16051     16054     15999     15998     16048     16049
     15999     15998     16048     16050     15999     15998     16048     16051
     16000     15998     16048     16049     16000     15998     16048     16050
     16000     15998     16048     16051     16001     16004     16007     16008
     16001     16004     16007     16009     16001     16004     16007     16010
     16002     16001     16004     16005     16002     16001     16004     16006
     16002     16001     16004     16007     16003     16001     16004     16005
     16003     16001     16004     16006     16003     16001     16004     16007
     16004     16007     16010     16011     16004     16007     16010     16012
     16004     16007     16010     16013     16005     16004     16007     16008
     16005     16004     16007     16009     16005     16004     16007     16010
     16006     16004     16007     16008     16006     16004     16007     16009
     16006     16004     16007     16010     16007     16010     16013     16014
     16007     16010     16013     16015     16007     16010     16013     16016
     16008     16007     16010     16011     16008     16007     16010     16012
     16008     16007     16010     16013     16009     16007     16010     16011
     16009     16007     16010     16012     16009     16007     16010     16013
     16010     16013     16016     16017     16010     16013     16016     16018
     16010     16013     16016     16019     16011     16010     16013     16014
     16011     16010     16013     16015     16011     16010     16013     16016
     16012     16010     16013     16014     16012     16010     16013     16015
     16012     16010     16013     16016     16013     16016     16019     16020
     16013     16016     16019     16021     16014     16013     16016     16017
     16014     16013     16016     16018     16014     16013     16016     16019
     16015     16013     16016     16017     16015     16013     16016     16018
     16015     16013     16016     16019     16016     16019     16021     16022
     16016     16019     16021     16023     16017     16016     16019     16020
     16017     16016     16019     16021     16018     16016     16019     16020
     16018     16016     16019     16021     16019     16021     16023     16024
     16019     16021     16023     16025     16019     16021     16023     16026
     16020     16019     16021     16022     16020     16019     16021     16023
     16021     16023     16026     16027     16021     16023     16026     16028
     16021     16023     16026     16029     16022     16021     16023     16024
     16022     16021     16023     16025     16022     16021     16023     16026
     16023     16026     16029     16030     16023     16026     16029     16031
     16023     16026     16029     16032     16024     16023     16026     16027
     16024     16023     16026     16028     16024     16023     16026     16029
     16025     16023     16026     16027     16025     16023     16026     16028
     16025     16023     16026     16029     16026     16029     16032     16033
     16026     16029     16032     16034     16026     16029     16032     16035
     16027     16026     16029     16030     16027     16026     16029     16031
     16027     16026     16029     16032     16028     16026     16029     16030
     16028     16026     16029     16031     16028     16026     16029     16032
     16029     16032     16035     16036     16029     16032     16035     16037
     16029     16032     16035     16038     16030     16029     16032     16033
     16030     16029     16032     16034     16030     16029     16032     16035
     16031     16029     16032     16033     16031     16029     16032     16034
     16031     16029     16032     16035     16032     16035     16038     16039
     16032     16035     16038     16040     16032     16035     16038     16041
     16033     16032     16035     16036     16033     16032     16035     16037
     16033     16032     16035     16038     16034     16032     16035     16036
     16034     16032     16035     16037     16034     16032     16035     16038
     16035     16038     16041     16042     16035     16038     16041     16043
     16035     16038     16041     16044     16036     16035     16038     16039
     16036     16035     16038     16040     16036     16035     16038     16041
     16037     16035     16038     16039     16037     16035     16038     16040
     16037     16035     16038     16041     16038     16041     16044     16045
     16038     16041     16044     16046     16038     16041     16044     16047
     16039     16038     16041     16042     16039     16038     16041     16043
     16039     16038     16041     16044     16040     16038     16041     16042
     16040     16038     16041     16043     16040     16038     16041     16044
     16042     16041     16044     16045     16042     16041     16044     16046
     16042     16041     16044     16047     16043     16041     16044     16045
     16043     16041     16044     16046     16043     16041     16044     16047
     16048     16051     16054     16055     16048     16051     16054     16056
     16048     16051     16054     16057     16049     16048     16051     16052
     16049     16048     16051     16053     16049     16048     16051     16054
     16050     16048     16051     16052     16050     16048     16051     16053
     16050     16048     16051     16054     16051     16054     16057     16058
     16051     16054     16057     16059     16051     16054     16057     16060
     16052     16051     16054     16055     16052     16051     16054     16056
     16052     16051     16054     16057     16053     16051     16054     16055
     16053     16051     16054     16056     16053     16051     16054     16057
     16054     16057     16060     16061     16054     16057     16060     16062
     16054     16057     16060     16063     16055     16054     16057     16058
     16055     16054     16057     16059     16055     16054     16057     16060
     16056     16054     16057     16058     16056     16054     16057     16059
     16056     16054     16057     16060     16057     16060     16063     16064
     16057     16060     16063     16065     16057     16060     16063     16066
     16058     16057     16060     16061     16058     16057     16060     16062
     16058     16057     16060     16063     16059     16057     16060     16061
     16059     16057     16060     16062     16059     16057     16060     16063
     16060     16063     16066     16067     16060     16063     16066     16068
     16061     16060     16063     16064     16061     16060     16063     16065
     16061     16060     16063     16066     16062     16060     16063     16064
     16062     16060     16063     16065     16062     16060     16063     16066
     16063     16066     16068     16069     16063     16066     16068     16070
     16064     16063     16066     16067     16064     16063     16066     16068
     16065     16063     16066     16067     16065     16063     16066     16068
     16066     16068     16070     16071     16066     16068     16070     16072
     16066     16068     16070     16073     16067     16066     16068     16069
     16067     16066     16068     16070     16068     16070     16073     16074
     16068     16070     16073     16075     16068     16070     16073     16076
     16069     16068     16070     16071     16069     16068     16070     16072
     16069     16068     16070     16073     16070     16073     16076     16077
     16070     16073     16076     16078     16070     16073     16076     16079
     16071     16070     16073     16074     16071     16070     16073     16075
     16071     16070     16073     16076     16072     16070     16073     16074
     16072     16070     16073     16075     16072     16070     16073     16076
     16073     16076     16079     16080     16073     16076     16079     16081
     16073     16076     16079     16082     16074     16073     16076     16077
     16074     16073     16076     16078     16074     16073     16076     16079
     16075     16073     16076     16077     16075     16073     16076     16078
     16075     16073     16076     16079     16076     16079     16082     16083
     16076     16079     16082     16084     16076     16079     16082     16085
     16077     16076     16079     16080     16077     16076     16079     16081
     16077     16076     16079     16082     16078     16076     16079     16080
     16078     16076     16079     16081     16078     16076     16079     16082
     16079     16082     16085     16086     16079     16082     16085     16087
     16079     16082     16085     16088     16080     16079     16082     16083
     16080     16079     16082     16084     16080     16079     16082     16085
     16081     16079     16082     16083     16081     16079     16082     16084
     16081     16079     16082     16085     16082     16085     16088     16089
     16082     16085     16088     16090     16082     16085     16088     16091
     16083     16082     16085     16086     16083     16082     16085     16087
     16083     16082     16085     16088     16084     16082     16085     16086
     16084     16082     16085     16087     16084     16082     16085     16088
     16085     16088     16091     16092     16085     16088     16091     16093
     16085     16088     16091     16094     16086     16085     16088     16089
     16086     16085     16088     16090     16086     16085     16088     16091
     16087     16085     16088     16089     16087     16085     16088     16090
     16087     16085     16088     16091     16089     16088     16091     16092
     16089     16088     16091     16093     16089     16088     16091     16094
     16090     16088     16091     16092     16090     16088     16091     16093
     16090     16088     16091     16094     16095     16096     16111     16112
     16095     16096     16111     16113     16095     16096     16111     16117
     16096     16095     16099     16100     16096     16095     16099     16101
     16096     16095     16099     16102     16096     16095     16103     16104
     16096     16095     16103     16105     16096     16095     16103     16106
     16096     16095     16107     16108     16096     16095     16107     16109
     16096     16095     16107     16110     16096     16111     16117     16114
     16097     16096     16095     16099     16097     16096     16095     16103
     16097     16096     16095     16107     16097     16096     16111     16112
     16097     16096     16111     16113     16097     16096     16111     16117
     16098     16096     16095     16099     16098     16096     16095     16103
     16098     16096     16095     16107     16098     16096     16111     16112
     16098     16096     16111     16113     16098     16096     16111     16117
     16099     16095     16096     16111     16099     16095     16103     16104
     16099     16095     16103     16105     16099     16095     16103     16106
     16099     16095     16107     16108     16099     16095     16107     16109
     16099     16095     16107     16110     16100     16099     16095     16103
     16100     16099     16095     16107     16101     16099     16095     16103
     16101     16099     16095     16107     16102     16099     16095     16103
     16102     16099     16095     16107     16103     16095     16096     16111
     16103     16095     16107     16108     16103     16095     16107     16109
     16103     16095     16107     16110     16104     16103     16095     16107
     16105     16103     16095     16107     16106     16103     16095     16107
     16107     16095     16096     16111     16111     16117     16114     16115
     16111     16117     16114     16116     16111     16117     16114     16118
     16112     16111     16117     16114     16113     16111     16117     16114
     16114     16118     16119     16120     16114     16118     16119     16121
     16114     16118     16119     16122     16115     16114     16118     16119
     16116     16114     16118     16119     16117     16114     16118     16119
     16118     16119     16122     16123     16118     16119     16122     16124
     16118     16119     16122     16130     16119     16122     16124     16125
     16119     16122     16130     16131     16119     16122     16130     16132
     16119     16122     16130     16133     16120     16119     16122     16123
     16120     16119     16122     16124     16120     16119     16122     16130
     16121     16119     16122     16123     16121     16119     16122     16124
     16121     16119     16122     16130     16122     16124     16125     16126
     16122     16124     16125     16127     16122     16130     16133     16134
     16123     16122     16124     16125     16123     16122     16130     16131
     16123     16122     16130     16132     16123     16122     16130     16133
     16124     16122     16130     16131     16124     16122     16130     16132
     16124     16122     16130     16133     16124     16125     16127     16128
     16124     16125     16127     16129     16124     16125     16127     16139
     16125     16124     16122     16130     16125     16127     16139     16140
     16125     16127     16139     16141     16125     16127     16139     16142
     16126     16125     16127     16128     16126     16125     16127     16129
     16126     16125     16127     16139     16127     16139     16142     16143
     16127     16139     16142     16144     16127     16139     16142     16145
     16128     16127     16139     16140     16128     16127     16139     16141
     16128     16127     16139     16142     16129     16127     16139     16140
     16129     16127     16139     16141     16129     16127     16139     16142
     16130     16133     16134     16135     16130     16133     16134     16136
     16131     16130     16133     16134     16132     16130     16133     16134
     16133     16134     16136     16137     16133     16134     16136     16138
     16133     16134     16136     16186     16134     16136     16186     16187
     16134     16136     16186     16188     16134     16136     16186     16189
     16135     16134     16136     16137     16135     16134     16136     16138
     16135     16134     16136     16186     16136     16186     16189     16190
     16136     16186     16189     16191     16136     16186     16189     16192
     16137     16136     16186     16187     16137     16136     16186     16188
     16137     16136     16186     16189     16138     16136     16186     16187
     16138     16136     16186     16188     16138     16136     16186     16189
     16139     16142     16145     16146     16139     16142     16145     16147
     16139     16142     16145     16148     16140     16139     16142     16143
     16140     16139     16142     16144     16140     16139     16142     16145
     16141     16139     16142     16143     16141     16139     16142     16144
     16141     16139     16142     16145     16142     16145     16148     16149
     16142     16145     16148     16150     16142     16145     16148     16151
     16143     16142     16145     16146     16143     16142     16145     16147
     16143     16142     16145     16148     16144     16142     16145     16146
     16144     16142     16145     16147     16144     16142     16145     16148
     16145     16148     16151     16152     16145     16148     16151     16153
     16145     16148     16151     16154     16146     16145     16148     16149
     16146     16145     16148     16150     16146     16145     16148     16151
     16147     16145     16148     16149     16147     16145     16148     16150
     16147     16145     16148     16151     16148     16151     16154     16155
     16148     16151     16154     16156     16148     16151     16154     16157
     16149     16148     16151     16152     16149     16148     16151     16153
     16149     16148     16151     16154     16150     16148     16151     16152
     16150     16148     16151     16153     16150     16148     16151     16154
     16151     16154     16157     16158     16151     16154     16157     16159
     16152     16151     16154     16155     16152     16151     16154     16156
     16152     16151     16154     16157     16153     16151     16154     16155
     16153     16151     16154     16156     16153     16151     16154     16157
     16154     16157     16159     16160     16154     16157     16159     16161
     16155     16154     16157     16158     16155     16154     16157     16159
     16156     16154     16157     16158     16156     16154     16157     16159
     16157     16159     16161     16162     16157     16159     16161     16163
     16157     16159     16161     16164     16158     16157     16159     16160
     16158     16157     16159     16161     16159     16161     16164     16165
     16159     16161     16164     16166     16159     16161     16164     16167
     16160     16159     16161     16162     16160     16159     16161     16163
     16160     16159     16161     16164     16161     16164     16167     16168
     16161     16164     16167     16169     16161     16164     16167     16170
     16162     16161     16164     16165     16162     16161     16164     16166
     16162     16161     16164     16167     16163     16161     16164     16165
     16163     16161     16164     16166     16163     16161     16164     16167
     16164     16167     16170     16171     16164     16167     16170     16172
     16164     16167     16170     16173     16165     16164     16167     16168
     16165     16164     16167     16169     16165     16164     16167     16170
     16166     16164     16167     16168     16166     16164     16167     16169
     16166     16164     16167     16170     16167     16170     16173     16174
     16167     16170     16173     16175     16167     16170     16173     16176
     16168     16167     16170     16171     16168     16167     16170     16172
     16168     16167     16170     16173     16169     16167     16170     16171
     16169     16167     16170     16172     16169     16167     16170     16173
     16170     16173     16176     16177     16170     16173     16176     16178
     16170     16173     16176     16179     16171     16170     16173     16174
     16171     16170     16173     16175     16171     16170     16173     16176
     16172     16170     16173     16174     16172     16170     16173     16175
     16172     16170     16173     16176     16173     16176     16179     16180
     16173     16176     16179     16181     16173     16176     16179     16182
     16174     16173     16176     16177     16174     16173     16176     16178
     16174     16173     16176     16179     16175     16173     16176     16177
     16175     16173     16176     16178     16175     16173     16176     16179
     16176     16179     16182     16183     16176     16179     16182     16184
     16176     16179     16182     16185     16177     16176     16179     16180
     16177     16176     16179     16181     16177     16176     16179     16182
     16178     16176     16179     16180     16178     16176     16179     16181
     16178     16176     16179     16182     16180     16179     16182     16183
     16180     16179     16182     16184     16180     16179     16182     16185
     16181     16179     16182     16183     16181     16179     16182     16184
     16181     16179     16182     16185     16186     16189     16192     16193
     16186     16189     16192     16194     16186     16189     16192     16195
     16187     16186     16189     16190     16187     16186     16189     16191
     16187     16186     16189     16192     16188     16186     16189     16190
     16188     16186     16189     16191     16188     16186     16189     16192
     16189     16192     16195     16196     16189     16192     16195     16197
     16189     16192     16195     16198     16190     16189     16192     16193
     16190     16189     16192     16194     16190     16189     16192     16195
     16191     16189     16192     16193     16191     16189     16192     16194
     16191     16189     16192     16195     16192     16195     16198     16199
     16192     16195     16198     16200     16192     16195     16198     16201
     16193     16192     16195     16196     16193     16192     16195     16197
     16193     16192     16195     16198     16194     16192     16195     16196
     16194     16192     16195     16197     16194     16192     16195     16198
     16195     16198     16201     16202     16195     16198     16201     16203
     16195     16198     16201     16204     16196     16195     16198     16199
     16196     16195     16198     16200     16196     16195     16198     16201
     16197     16195     16198     16199     16197     16195     16198     16200
     16197     16195     16198     16201     16198     16201     16204     16205
     16198     16201     16204     16206     16199     16198     16201     16202
     16199     16198     16201     16203     16199     16198     16201     16204
     16200     16198     16201     16202     16200     16198     16201     16203
     16200     16198     16201     16204     16201     16204     16206     16207
     16201     16204     16206     16208     16202     16201     16204     16205
     16202     16201     16204     16206     16203     16201     16204     16205
     16203     16201     16204     16206     16204     16206     16208     16209
     16204     16206     16208     16210     16204     16206     16208     16211
     16205     16204     16206     16207     16205     16204     16206     16208
     16206     16208     16211     16212     16206     16208     16211     16213
     16206     16208     16211     16214     16207     16206     16208     16209
     16207     16206     16208     16210     16207     16206     16208     16211
     16208     16211     16214     16215     16208     16211     16214     16216
     16208     16211     16214     16217     16209     16208     16211     16212
     16209     16208     16211     16213     16209     16208     16211     16214
     16210     16208     16211     16212     16210     16208     16211     16213
     16210     16208     16211     16214     16211     16214     16217     16218
     16211     16214     16217     16219     16211     16214     16217     16220
     16212     16211     16214     16215     16212     16211     16214     16216
     16212     16211     16214     16217     16213     16211     16214     16215
     16213     16211     16214     16216     16213     16211     16214     16217
     16214     16217     16220     16221     16214     16217     16220     16222
     16214     16217     16220     16223     16215     16214     16217     16218
     16215     16214     16217     16219     16215     16214     16217     16220
     16216     16214     16217     16218     16216     16214     16217     16219
     16216     16214     16217     16220     16217     16220     16223     16224
     16217     16220     16223     16225     16217     16220     16223     16226
     16218     16217     16220     16221     16218     16217     16220     16222
     16218     16217     16220     16223     16219     16217     16220     16221
     16219     16217     16220     16222     16219     16217     16220     16223
     16220     16223     16226     16227     16220     16223     16226     16228
     16220     16223     16226     16229     16221     16220     16223     16224
     16221     16220     16223     16225     16221     16220     16223     16226
     16222     16220     16223     16224     16222     16220     16223     16225
     16222     16220     16223     16226     16223     16226     16229     16230
     16223     16226     16229     16231     16223     16226     16229     16232
     16224     16223     16226     16227     16224     16223     16226     16228
     16224     16223     16226     16229     16225     16223     16226     16227
     16225     16223     16226     16228     16225     16223     16226     16229
     16227     16226     16229     16230     16227     16226     16229     16231
     16227     16226     16229     16232     16228     16226     16229     16230
     16228     16226     16229     16231     16228     16226     16229     16232
     16233     16234     16249     16250     16233     16234     16249     16251
     16233     16234     16249     16255     16234     16233     16237     16238
     16234     16233     16237     16239     16234     16233     16237     16240
     16234     16233     16241     16242     16234     16233     16241     16243
     16234     16233     16241     16244     16234     16233     16245     16246
     16234     16233     16245     16247     16234     16233     16245     16248
     16234     16249     16255     16252     16235     16234     16233     16237
     16235     16234     16233     16241     16235     16234     16233     16245
     16235     16234     16249     16250     16235     16234     16249     16251
     16235     16234     16249     16255     16236     16234     16233     16237
     16236     16234     16233     16241     16236     16234     16233     16245
     16236     16234     16249     16250     16236     16234     16249     16251
     16236     16234     16249     16255     16237     16233     16234     16249
     16237     16233     16241     16242     16237     16233     16241     16243
     16237     16233     16241     16244     16237     16233     16245     16246
     16237     16233     16245     16247     16237     16233     16245     16248
     16238     16237     16233     16241     16238     16237     16233     16245
     16239     16237     16233     16241     16239     16237     16233     16245
     16240     16237     16233     16241     16240     16237     16233     16245
     16241     16233     16234     16249     16241     16233     16245     16246
     16241     16233     16245     16247     16241     16233     16245     16248
     16242     16241     16233     16245     16243     16241     16233     16245
     16244     16241     16233     16245     16245     16233     16234     16249
     16249     16255     16252     16253     16249     16255     16252     16254
     16249     16255     16252     16256     16250     16249     16255     16252
     16251     16249     16255     16252     16252     16256     16257     16258
     16252     16256     16257     16259     16252     16256     16257     16260
     16253     16252     16256     16257     16254     16252     16256     16257
     16255     16252     16256     16257     16256     16257     16260     16261
     16256     16257     16260     16262     16256     16257     16260     16268
     16257     16260     16262     16263     16257     16260     16268     16269
     16257     16260     16268     16270     16257     16260     16268     16271
     16258     16257     16260     16261     16258     16257     16260     16262
     16258     16257     16260     16268     16259     16257     16260     16261
     16259     16257     16260     16262     16259     16257     16260     16268
     16260     16262     16263     16264     16260     16262     16263     16265
     16260     16268     16271     16272     16261     16260     16262     16263
     16261     16260     16268     16269     16261     16260     16268     16270
     16261     16260     16268     16271     16262     16260     16268     16269
     16262     16260     16268     16270     16262     16260     16268     16271
     16262     16263     16265     16266     16262     16263     16265     16267
     16262     16263     16265     16277     16263     16262     16260     16268
     16263     16265     16277     16278     16263     16265     16277     16279
     16263     16265     16277     16280     16264     16263     16265     16266
     16264     16263     16265     16267     16264     16263     16265     16277
     16265     16277     16280     16281     16265     16277     16280     16282
     16265     16277     16280     16283     16266     16265     16277     16278
     16266     16265     16277     16279     16266     16265     16277     16280
     16267     16265     16277     16278     16267     16265     16277     16279
     16267     16265     16277     16280     16268     16271     16272     16273
     16268     16271     16272     16274     16269     16268     16271     16272
     16270     16268     16271     16272     16271     16272     16274     16275
     16271     16272     16274     16276     16271     16272     16274     16324
     16272     16274     16324     16325     16272     16274     16324     16326
     16272     16274     16324     16327     16273     16272     16274     16275
     16273     16272     16274     16276     16273     16272     16274     16324
     16274     16324     16327     16328     16274     16324     16327     16329
     16274     16324     16327     16330     16275     16274     16324     16325
     16275     16274     16324     16326     16275     16274     16324     16327
     16276     16274     16324     16325     16276     16274     16324     16326
     16276     16274     16324     16327     16277     16280     16283     16284
     16277     16280     16283     16285     16277     16280     16283     16286
     16278     16277     16280     16281     16278     16277     16280     16282
     16278     16277     16280     16283     16279     16277     16280     16281
     16279     16277     16280     16282     16279     16277     16280     16283
     16280     16283     16286     16287     16280     16283     16286     16288
     16280     16283     16286     16289     16281     16280     16283     16284
     16281     16280     16283     16285     16281     16280     16283     16286
     16282     16280     16283     16284     16282     16280     16283     16285
     16282     16280     16283     16286     16283     16286     16289     16290
     16283     16286     16289     16291     16283     16286     16289     16292
     16284     16283     16286     16287     16284     16283     16286     16288
     16284     16283     16286     16289     16285     16283     16286     16287
     16285     16283     16286     16288     16285     16283     16286     16289
     16286     16289     16292     16293     16286     16289     16292     16294
     16286     16289     16292     16295     16287     16286     16289     16290
     16287     16286     16289     16291     16287     16286     16289     16292
     16288     16286     16289     16290     16288     16286     16289     16291
     16288     16286     16289     16292     16289     16292     16295     16296
     16289     16292     16295     16297     16290     16289     16292     16293
     16290     16289     16292     16294     16290     16289     16292     16295
     16291     16289     16292     16293     16291     16289     16292     16294
     16291     16289     16292     16295     16292     16295     16297     16298
     16292     16295     16297     16299     16293     16292     16295     16296
     16293     16292     16295     16297     16294     16292     16295     16296
     16294     16292     16295     16297     16295     16297     16299     16300
     16295     16297     16299     16301     16295     16297     16299     16302
     16296     16295     16297     16298     16296     16295     16297     16299
     16297     16299     16302     16303     16297     16299     16302     16304
     16297     16299     16302     16305     16298     16297     16299     16300
     16298     16297     16299     16301     16298     16297     16299     16302
     16299     16302     16305     16306     16299     16302     16305     16307
     16299     16302     16305     16308     16300     16299     16302     16303
     16300     16299     16302     16304     16300     16299     16302     16305
     16301     16299     16302     16303     16301     16299     16302     16304
     16301     16299     16302     16305     16302     16305     16308     16309
     16302     16305     16308     16310     16302     16305     16308     16311
     16303     16302     16305     16306     16303     16302     16305     16307
     16303     16302     16305     16308     16304     16302     16305     16306
     16304     16302     16305     16307     16304     16302     16305     16308
     16305     16308     16311     16312     16305     16308     16311     16313
     16305     16308     16311     16314     16306     16305     16308     16309
     16306     16305     16308     16310     16306     16305     16308     16311
     16307     16305     16308     16309     16307     16305     16308     16310
     16307     16305     16308     16311     16308     16311     16314     16315
     16308     16311     16314     16316     16308     16311     16314     16317
     16309     16308     16311     16312     16309     16308     16311     16313
     16309     16308     16311     16314     16310     16308     16311     16312
     16310     16308     16311     16313     16310     16308     16311     16314
     16311     16314     16317     16318     16311     16314     16317     16319
     16311     16314     16317     16320     16312     16311     16314     16315
     16312     16311     16314     16316     16312     16311     16314     16317
     16313     16311     16314     16315     16313     16311     16314     16316
     16313     16311     16314     16317     16314     16317     16320     16321
     16314     16317     16320     16322     16314     16317     16320     16323
     16315     16314     16317     16318     16315     16314     16317     16319
     16315     16314     16317     16320     16316     16314     16317     16318
     16316     16314     16317     16319     16316     16314     16317     16320
     16318     16317     16320     16321     16318     16317     16320     16322
     16318     16317     16320     16323     16319     16317     16320     16321
     16319     16317     16320     16322     16319     16317     16320     16323
     16324     16327     16330     16331     16324     16327     16330     16332
     16324     16327     16330     16333     16325     16324     16327     16328
     16325     16324     16327     16329     16325     16324     16327     16330
     16326     16324     16327     16328     16326     16324     16327     16329
     16326     16324     16327     16330     16327     16330     16333     16334
     16327     16330     16333     16335     16327     16330     16333     16336
     16328     16327     16330     16331     16328     16327     16330     16332
     16328     16327     16330     16333     16329     16327     16330     16331
     16329     16327     16330     16332     16329     16327     16330     16333
     16330     16333     16336     16337     16330     16333     16336     16338
     16330     16333     16336     16339     16331     16330     16333     16334
     16331     16330     16333     16335     16331     16330     16333     16336
     16332     16330     16333     16334     16332     16330     16333     16335
     16332     16330     16333     16336     16333     16336     16339     16340
     16333     16336     16339     16341     16333     16336     16339     16342
     16334     16333     16336     16337     16334     16333     16336     16338
     16334     16333     16336     16339     16335     16333     16336     16337
     16335     16333     16336     16338     16335     16333     16336     16339
     16336     16339     16342     16343     16336     16339     16342     16344
     16337     16336     16339     16340     16337     16336     16339     16341
     16337     16336     16339     16342     16338     16336     16339     16340
     16338     16336     16339     16341     16338     16336     16339     16342
     16339     16342     16344     16345     16339     16342     16344     16346
     16340     16339     16342     16343     16340     16339     16342     16344
     16341     16339     16342     16343     16341     16339     16342     16344
     16342     16344     16346     16347     16342     16344     16346     16348
     16342     16344     16346     16349     16343     16342     16344     16345
     16343     16342     16344     16346     16344     16346     16349     16350
     16344     16346     16349     16351     16344     16346     16349     16352
     16345     16344     16346     16347     16345     16344     16346     16348
     16345     16344     16346     16349     16346     16349     16352     16353
     16346     16349     16352     16354     16346     16349     16352     16355
     16347     16346     16349     16350     16347     16346     16349     16351
     16347     16346     16349     16352     16348     16346     16349     16350
     16348     16346     16349     16351     16348     16346     16349     16352
     16349     16352     16355     16356     16349     16352     16355     16357
     16349     16352     16355     16358     16350     16349     16352     16353
     16350     16349     16352     16354     16350     16349     16352     16355
     16351     16349     16352     16353     16351     16349     16352     16354
     16351     16349     16352     16355     16352     16355     16358     16359
     16352     16355     16358     16360     16352     16355     16358     16361
     16353     16352     16355     16356     16353     16352     16355     16357
     16353     16352     16355     16358     16354     16352     16355     16356
     16354     16352     16355     16357     16354     16352     16355     16358
     16355     16358     16361     16362     16355     16358     16361     16363
     16355     16358     16361     16364     16356     16355     16358     16359
     16356     16355     16358     16360     16356     16355     16358     16361
     16357     16355     16358     16359     16357     16355     16358     16360
     16357     16355     16358     16361     16358     16361     16364     16365
     16358     16361     16364     16366     16358     16361     16364     16367
     16359     16358     16361     16362     16359     16358     16361     16363
     16359     16358     16361     16364     16360     16358     16361     16362
     16360     16358     16361     16363     16360     16358     16361     16364
     16361     16364     16367     16368     16361     16364     16367     16369
     16361     16364     16367     16370     16362     16361     16364     16365
     16362     16361     16364     16366     16362     16361     16364     16367
     16363     16361     16364     16365     16363     16361     16364     16366
     16363     16361     16364     16367     16365     16364     16367     16368
     16365     16364     16367     16369     16365     16364     16367     16370
     16366     16364     16367     16368     16366     16364     16367     16369
     16366     16364     16367     16370     16371     16372     16387     16388
     16371     16372     16387     16389     16371     16372     16387     16393
     16372     16371     16375     16376     16372     16371     16375     16377
     16372     16371     16375     16378     16372     16371     16379     16380
     16372     16371     16379     16381     16372     16371     16379     16382
     16372     16371     16383     16384     16372     16371     16383     16385
     16372     16371     16383     16386     16372     16387     16393     16390
     16373     16372     16371     16375     16373     16372     16371     16379
     16373     16372     16371     16383     16373     16372     16387     16388
     16373     16372     16387     16389     16373     16372     16387     16393
     16374     16372     16371     16375     16374     16372     16371     16379
     16374     16372     16371     16383     16374     16372     16387     16388
     16374     16372     16387     16389     16374     16372     16387     16393
     16375     16371     16372     16387     16375     16371     16379     16380
     16375     16371     16379     16381     16375     16371     16379     16382
     16375     16371     16383     16384     16375     16371     16383     16385
     16375     16371     16383     16386     16376     16375     16371     16379
     16376     16375     16371     16383     16377     16375     16371     16379
     16377     16375     16371     16383     16378     16375     16371     16379
     16378     16375     16371     16383     16379     16371     16372     16387
     16379     16371     16383     16384     16379     16371     16383     16385
     16379     16371     16383     16386     16380     16379     16371     16383
     16381     16379     16371     16383     16382     16379     16371     16383
     16383     16371     16372     16387     16387     16393     16390     16391
     16387     16393     16390     16392     16387     16393     16390     16394
     16388     16387     16393     16390     16389     16387     16393     16390
     16390     16394     16395     16396     16390     16394     16395     16397
     16390     16394     16395     16398     16391     16390     16394     16395
     16392     16390     16394     16395     16393     16390     16394     16395
     16394     16395     16398     16399     16394     16395     16398     16400
     16394     16395     16398     16406     16395     16398     16400     16401
     16395     16398     16406     16407     16395     16398     16406     16408
     16395     16398     16406     16409     16396     16395     16398     16399
     16396     16395     16398     16400     16396     16395     16398     16406
     16397     16395     16398     16399     16397     16395     16398     16400
     16397     16395     16398     16406     16398     16400     16401     16402
     16398     16400     16401     16403     16398     16406     16409     16410
     16399     16398     16400     16401     16399     16398     16406     16407
     16399     16398     16406     16408     16399     16398     16406     16409
     16400     16398     16406     16407     16400     16398     16406     16408
     16400     16398     16406     16409     16400     16401     16403     16404
     16400     16401     16403     16405     16400     16401     16403     16415
     16401     16400     16398     16406     16401     16403     16415     16416
     16401     16403     16415     16417     16401     16403     16415     16418
     16402     16401     16403     16404     16402     16401     16403     16405
     16402     16401     16403     16415     16403     16415     16418     16419
     16403     16415     16418     16420     16403     16415     16418     16421
     16404     16403     16415     16416     16404     16403     16415     16417
     16404     16403     16415     16418     16405     16403     16415     16416
     16405     16403     16415     16417     16405     16403     16415     16418
     16406     16409     16410     16411     16406     16409     16410     16412
     16407     16406     16409     16410     16408     16406     16409     16410
     16409     16410     16412     16413     16409     16410     16412     16414
     16409     16410     16412     16462     16410     16412     16462     16463
     16410     16412     16462     16464     16410     16412     16462     16465
     16411     16410     16412     16413     16411     16410     16412     16414
     16411     16410     16412     16462     16412     16462     16465     16466
     16412     16462     16465     16467     16412     16462     16465     16468
     16413     16412     16462     16463     16413     16412     16462     16464
     16413     16412     16462     16465     16414     16412     16462     16463
     16414     16412     16462     16464     16414     16412     16462     16465
     16415     16418     16421     16422     16415     16418     16421     16423
     16415     16418     16421     16424     16416     16415     16418     16419
     16416     16415     16418     16420     16416     16415     16418     16421
     16417     16415     16418     16419     16417     16415     16418     16420
     16417     16415     16418     16421     16418     16421     16424     16425
     16418     16421     16424     16426     16418     16421     16424     16427
     16419     16418     16421     16422     16419     16418     16421     16423
     16419     16418     16421     16424     16420     16418     16421     16422
     16420     16418     16421     16423     16420     16418     16421     16424
     16421     16424     16427     16428     16421     16424     16427     16429
     16421     16424     16427     16430     16422     16421     16424     16425
     16422     16421     16424     16426     16422     16421     16424     16427
     16423     16421     16424     16425     16423     16421     16424     16426
     16423     16421     16424     16427     16424     16427     16430     16431
     16424     16427     16430     16432     16424     16427     16430     16433
     16425     16424     16427     16428     16425     16424     16427     16429
     16425     16424     16427     16430     16426     16424     16427     16428
     16426     16424     16427     16429     16426     16424     16427     16430
     16427     16430     16433     16434     16427     16430     16433     16435
     16428     16427     16430     16431     16428     16427     16430     16432
     16428     16427     16430     16433     16429     16427     16430     16431
     16429     16427     16430     16432     16429     16427     16430     16433
     16430     16433     16435     16436     16430     16433     16435     16437
     16431     16430     16433     16434     16431     16430     16433     16435
     16432     16430     16433     16434     16432     16430     16433     16435
     16433     16435     16437     16438     16433     16435     16437     16439
     16433     16435     16437     16440     16434     16433     16435     16436
     16434     16433     16435     16437     16435     16437     16440     16441
     16435     16437     16440     16442     16435     16437     16440     16443
     16436     16435     16437     16438     16436     16435     16437     16439
     16436     16435     16437     16440     16437     16440     16443     16444
     16437     16440     16443     16445     16437     16440     16443     16446
     16438     16437     16440     16441     16438     16437     16440     16442
     16438     16437     16440     16443     16439     16437     16440     16441
     16439     16437     16440     16442     16439     16437     16440     16443
     16440     16443     16446     16447     16440     16443     16446     16448
     16440     16443     16446     16449     16441     16440     16443     16444
     16441     16440     16443     16445     16441     16440     16443     16446
     16442     16440     16443     16444     16442     16440     16443     16445
     16442     16440     16443     16446     16443     16446     16449     16450
     16443     16446     16449     16451     16443     16446     16449     16452
     16444     16443     16446     16447     16444     16443     16446     16448
     16444     16443     16446     16449     16445     16443     16446     16447
     16445     16443     16446     16448     16445     16443     16446     16449
     16446     16449     16452     16453     16446     16449     16452     16454
     16446     16449     16452     16455     16447     16446     16449     16450
     16447     16446     16449     16451     16447     16446     16449     16452
     16448     16446     16449     16450     16448     16446     16449     16451
     16448     16446     16449     16452     16449     16452     16455     16456
     16449     16452     16455     16457     16449     16452     16455     16458
     16450     16449     16452     16453     16450     16449     16452     16454
     16450     16449     16452     16455     16451     16449     16452     16453
     16451     16449     16452     16454     16451     16449     16452     16455
     16452     16455     16458     16459     16452     16455     16458     16460
     16452     16455     16458     16461     16453     16452     16455     16456
     16453     16452     16455     16457     16453     16452     16455     16458
     16454     16452     16455     16456     16454     16452     16455     16457
     16454     16452     16455     16458     16456     16455     16458     16459
     16456     16455     16458     16460     16456     16455     16458     16461
     16457     16455     16458     16459     16457     16455     16458     16460
     16457     16455     16458     16461     16462     16465     16468     16469
     16462     16465     16468     16470     16462     16465     16468     16471
     16463     16462     16465     16466     16463     16462     16465     16467
     16463     16462     16465     16468     16464     16462     16465     16466
     16464     16462     16465     16467     16464     16462     16465     16468
     16465     16468     16471     16472     16465     16468     16471     16473
     16465     16468     16471     16474     16466     16465     16468     16469
     16466     16465     16468     16470     16466     16465     16468     16471
     16467     16465     16468     16469     16467     16465     16468     16470
     16467     16465     16468     16471     16468     16471     16474     16475
     16468     16471     16474     16476     16468     16471     16474     16477
     16469     16468     16471     16472     16469     16468     16471     16473
     16469     16468     16471     16474     16470     16468     16471     16472
     16470     16468     16471     16473     16470     16468     16471     16474
     16471     16474     16477     16478     16471     16474     16477     16479
     16471     16474     16477     16480     16472     16471     16474     16475
     16472     16471     16474     16476     16472     16471     16474     16477
     16473     16471     16474     16475     16473     16471     16474     16476
     16473     16471     16474     16477     16474     16477     16480     16481
     16474     16477     16480     16482     16475     16474     16477     16478
     16475     16474     16477     16479     16475     16474     16477     16480
     16476     16474     16477     16478     16476     16474     16477     16479
     16476     16474     16477     16480     16477     16480     16482     16483
     16477     16480     16482     16484     16478     16477     16480     16481
     16478     16477     16480     16482     16479     16477     16480     16481
     16479     16477     16480     16482     16480     16482     16484     16485
     16480     16482     16484     16486     16480     16482     16484     16487
     16481     16480     16482     16483     16481     16480     16482     16484
     16482     16484     16487     16488     16482     16484     16487     16489
     16482     16484     16487     16490     16483     16482     16484     16485
     16483     16482     16484     16486     16483     16482     16484     16487
     16484     16487     16490     16491     16484     16487     16490     16492
     16484     16487     16490     16493     16485     16484     16487     16488
     16485     16484     16487     16489     16485     16484     16487     16490
     16486     16484     16487     16488     16486     16484     16487     16489
     16486     16484     16487     16490     16487     16490     16493     16494
     16487     16490     16493     16495     16487     16490     16493     16496
     16488     16487     16490     16491     16488     16487     16490     16492
     16488     16487     16490     16493     16489     16487     16490     16491
     16489     16487     16490     16492     16489     16487     16490     16493
     16490     16493     16496     16497     16490     16493     16496     16498
     16490     16493     16496     16499     16491     16490     16493     16494
     16491     16490     16493     16495     16491     16490     16493     16496
     16492     16490     16493     16494     16492     16490     16493     16495
     16492     16490     16493     16496     16493     16496     16499     16500
     16493     16496     16499     16501     16493     16496     16499     16502
     16494     16493     16496     16497     16494     16493     16496     16498
     16494     16493     16496     16499     16495     16493     16496     16497
     16495     16493     16496     16498     16495     16493     16496     16499
     16496     16499     16502     16503     16496     16499     16502     16504
     16496     16499     16502     16505     16497     16496     16499     16500
     16497     16496     16499     16501     16497     16496     16499     16502
     16498     16496     16499     16500     16498     16496     16499     16501
     16498     16496     16499     16502     16499     16502     16505     16506
     16499     16502     16505     16507     16499     16502     16505     16508
     16500     16499     16502     16503     16500     16499     16502     16504
     16500     16499     16502     16505     16501     16499     16502     16503
     16501     16499     16502     16504     16501     16499     16502     16505
     16503     16502     16505     16506     16503     16502     16505     16507
     16503     16502     16505     16508     16504     16502     16505     16506
     16504     16502     16505     16507     16504     16502     16505     16508
     16509     16510     16525     16526     16509     16510     16525     16527
     16509     16510     16525     16531     16510     16509     16513     16514
     16510     16509     16513     16515     16510     16509     16513     16516
     16510     16509     16517     16518     16510     16509     16517     16519
     16510     16509     16517     16520     16510     16509     16521     16522
     16510     16509     16521     16523     16510     16509     16521     16524
     16510     16525     16531     16528     16511     16510     16509     16513
     16511     16510     16509     16517     16511     16510     16509     16521
     16511     16510     16525     16526     16511     16510     16525     16527
     16511     16510     16525     16531     16512     16510     16509     16513
     16512     16510     16509     16517     16512     16510     16509     16521
     16512     16510     16525     16526     16512     16510     16525     16527
     16512     16510     16525     16531     16513     16509     16510     16525
     16513     16509     16517     16518     16513     16509     16517     16519
     16513     16509     16517     16520     16513     16509     16521     16522
     16513     16509     16521     16523     16513     16509     16521     16524
     16514     16513     16509     16517     16514     16513     16509     16521
     16515     16513     16509     16517     16515     16513     16509     16521
     16516     16513     16509     16517     16516     16513     16509     16521
     16517     16509     16510     16525     16517     16509     16521     16522
     16517     16509     16521     16523     16517     16509     16521     16524
     16518     16517     16509     16521     16519     16517     16509     16521
     16520     16517     16509     16521     16521     16509     16510     16525
     16525     16531     16528     16529     16525     16531     16528     16530
     16525     16531     16528     16532     16526     16525     16531     16528
     16527     16525     16531     16528     16528     16532     16533     16534
     16528     16532     16533     16535     16528     16532     16533     16536
     16529     16528     16532     16533     16530     16528     16532     16533
     16531     16528     16532     16533     16532     16533     16536     16537
     16532     16533     16536     16538     16532     16533     16536     16544
     16533     16536     16538     16539     16533     16536     16544     16545
     16533     16536     16544     16546     16533     16536     16544     16547
     16534     16533     16536     16537     16534     16533     16536     16538
     16534     16533     16536     16544     16535     16533     16536     16537
     16535     16533     16536     16538     16535     16533     16536     16544
     16536     16538     16539     16540     16536     16538     16539     16541
     16536     16544     16547     16548     16537     16536     16538     16539
     16537     16536     16544     16545     16537     16536     16544     16546
     16537     16536     16544     16547     16538     16536     16544     16545
     16538     16536     16544     16546     16538     16536     16544     16547
     16538     16539     16541     16542     16538     16539     16541     16543
     16538     16539     16541     16553     16539     16538     16536     16544
     16539     16541     16553     16554     16539     16541     16553     16555
     16539     16541     16553     16556     16540     16539     16541     16542
     16540     16539     16541     16543     16540     16539     16541     16553
     16541     16553     16556     16557     16541     16553     16556     16558
     16541     16553     16556     16559     16542     16541     16553     16554
     16542     16541     16553     16555     16542     16541     16553     16556
     16543     16541     16553     16554     16543     16541     16553     16555
     16543     16541     16553     16556     16544     16547     16548     16549
     16544     16547     16548     16550     16545     16544     16547     16548
     16546     16544     16547     16548     16547     16548     16550     16551
     16547     16548     16550     16552     16547     16548     16550     16600
     16548     16550     16600     16601     16548     16550     16600     16602
     16548     16550     16600     16603     16549     16548     16550     16551
     16549     16548     16550     16552     16549     16548     16550     16600
     16550     16600     16603     16604     16550     16600     16603     16605
     16550     16600     16603     16606     16551     16550     16600     16601
     16551     16550     16600     16602     16551     16550     16600     16603
     16552     16550     16600     16601     16552     16550     16600     16602
     16552     16550     16600     16603     16553     16556     16559     16560
     16553     16556     16559     16561     16553     16556     16559     16562
     16554     16553     16556     16557     16554     16553     16556     16558
     16554     16553     16556     16559     16555     16553     16556     16557
     16555     16553     16556     16558     16555     16553     16556     16559
     16556     16559     16562     16563     16556     16559     16562     16564
     16556     16559     16562     16565     16557     16556     16559     16560
     16557     16556     16559     16561     16557     16556     16559     16562
     16558     16556     16559     16560     16558     16556     16559     16561
     16558     16556     16559     16562     16559     16562     16565     16566
     16559     16562     16565     16567     16559     16562     16565     16568
     16560     16559     16562     16563     16560     16559     16562     16564
     16560     16559     16562     16565     16561     16559     16562     16563
     16561     16559     16562     16564     16561     16559     16562     16565
     16562     16565     16568     16569     16562     16565     16568     16570
     16562     16565     16568     16571     16563     16562     16565     16566
     16563     16562     16565     16567     16563     16562     16565     16568
     16564     16562     16565     16566     16564     16562     16565     16567
     16564     16562     16565     16568     16565     16568     16571     16572
     16565     16568     16571     16573     16566     16565     16568     16569
     16566     16565     16568     16570     16566     16565     16568     16571
     16567     16565     16568     16569     16567     16565     16568     16570
     16567     16565     16568     16571     16568     16571     16573     16574
     16568     16571     16573     16575     16569     16568     16571     16572
     16569     16568     16571     16573     16570     16568     16571     16572
     16570     16568     16571     16573     16571     16573     16575     16576
     16571     16573     16575     16577     16571     16573     16575     16578
     16572     16571     16573     16574     16572     16571     16573     16575
     16573     16575     16578     16579     16573     16575     16578     16580
     16573     16575     16578     16581     16574     16573     16575     16576
     16574     16573     16575     16577     16574     16573     16575     16578
     16575     16578     16581     16582     16575     16578     16581     16583
     16575     16578     16581     16584     16576     16575     16578     16579
     16576     16575     16578     16580     16576     16575     16578     16581
     16577     16575     16578     16579     16577     16575     16578     16580
     16577     16575     16578     16581     16578     16581     16584     16585
     16578     16581     16584     16586     16578     16581     16584     16587
     16579     16578     16581     16582     16579     16578     16581     16583
     16579     16578     16581     16584     16580     16578     16581     16582
     16580     16578     16581     16583     16580     16578     16581     16584
     16581     16584     16587     16588     16581     16584     16587     16589
     16581     16584     16587     16590     16582     16581     16584     16585
     16582     16581     16584     16586     16582     16581     16584     16587
     16583     16581     16584     16585     16583     16581     16584     16586
     16583     16581     16584     16587     16584     16587     16590     16591
     16584     16587     16590     16592     16584     16587     16590     16593
     16585     16584     16587     16588     16585     16584     16587     16589
     16585     16584     16587     16590     16586     16584     16587     16588
     16586     16584     16587     16589     16586     16584     16587     16590
     16587     16590     16593     16594     16587     16590     16593     16595
     16587     16590     16593     16596     16588     16587     16590     16591
     16588     16587     16590     16592     16588     16587     16590     16593
     16589     16587     16590     16591     16589     16587     16590     16592
     16589     16587     16590     16593     16590     16593     16596     16597
     16590     16593     16596     16598     16590     16593     16596     16599
     16591     16590     16593     16594     16591     16590     16593     16595
     16591     16590     16593     16596     16592     16590     16593     16594
     16592     16590     16593     16595     16592     16590     16593     16596
     16594     16593     16596     16597     16594     16593     16596     16598
     16594     16593     16596     16599     16595     16593     16596     16597
     16595     16593     16596     16598     16595     16593     16596     16599
     16600     16603     16606     16607     16600     16603     16606     16608
     16600     16603     16606     16609     16601     16600     16603     16604
     16601     16600     16603     16605     16601     16600     16603     16606
     16602     16600     16603     16604     16602     16600     16603     16605
     16602     16600     16603     16606     16603     16606     16609     16610
     16603     16606     16609     16611     16603     16606     16609     16612
     16604     16603     16606     16607     16604     16603     16606     16608
     16604     16603     16606     16609     16605     16603     16606     16607
     16605     16603     16606     16608     16605     16603     16606     16609
     16606     16609     16612     16613     16606     16609     16612     16614
     16606     16609     16612     16615     16607     16606     16609     16610
     16607     16606     16609     16611     16607     16606     16609     16612
     16608     16606     16609     16610     16608     16606     16609     16611
     16608     16606     16609     16612     16609     16612     16615     16616
     16609     16612     16615     16617     16609     16612     16615     16618
     16610     16609     16612     16613     16610     16609     16612     16614
     16610     16609     16612     16615     16611     16609     16612     16613
     16611     16609     16612     16614     16611     16609     16612     16615
     16612     16615     16618     16619     16612     16615     16618     16620
     16613     16612     16615     16616     16613     16612     16615     16617
     16613     16612     16615     16618     16614     16612     16615     16616
     16614     16612     16615     16617     16614     16612     16615     16618
     16615     16618     16620     16621     16615     16618     16620     16622
     16616     16615     16618     16619     16616     16615     16618     16620
     16617     16615     16618     16619     16617     16615     16618     16620
     16618     16620     16622     16623     16618     16620     16622     16624
     16618     16620     16622     16625     16619     16618     16620     16621
     16619     16618     16620     16622     16620     16622     16625     16626
     16620     16622     16625     16627     16620     16622     16625     16628
     16621     16620     16622     16623     16621     16620     16622     16624
     16621     16620     16622     16625     16622     16625     16628     16629
     16622     16625     16628     16630     16622     16625     16628     16631
     16623     16622     16625     16626     16623     16622     16625     16627
     16623     16622     16625     16628     16624     16622     16625     16626
     16624     16622     16625     16627     16624     16622     16625     16628
     16625     16628     16631     16632     16625     16628     16631     16633
     16625     16628     16631     16634     16626     16625     16628     16629
     16626     16625     16628     16630     16626     16625     16628     16631
     16627     16625     16628     16629     16627     16625     16628     16630
     16627     16625     16628     16631     16628     16631     16634     16635
     16628     16631     16634     16636     16628     16631     16634     16637
     16629     16628     16631     16632     16629     16628     16631     16633
     16629     16628     16631     16634     16630     16628     16631     16632
     16630     16628     16631     16633     16630     16628     16631     16634
     16631     16634     16637     16638     16631     16634     16637     16639
     16631     16634     16637     16640     16632     16631     16634     16635
     16632     16631     16634     16636     16632     16631     16634     16637
     16633     16631     16634     16635     16633     16631     16634     16636
     16633     16631     16634     16637     16634     16637     16640     16641
     16634     16637     16640     16642     16634     16637     16640     16643
     16635     16634     16637     16638     16635     16634     16637     16639
     16635     16634     16637     16640     16636     16634     16637     16638
     16636     16634     16637     16639     16636     16634     16637     16640
     16637     16640     16643     16644     16637     16640     16643     16645
     16637     16640     16643     16646     16638     16637     16640     16641
     16638     16637     16640     16642     16638     16637     16640     16643
     16639     16637     16640     16641     16639     16637     16640     16642
     16639     16637     16640     16643     16641     16640     16643     16644
     16641     16640     16643     16645     16641     16640     16643     16646
     16642     16640     16643     16644     16642     16640     16643     16645
     16642     16640     16643     16646     16647     16648     16663     16664
     16647     16648     16663     16665     16647     16648     16663     16669
     16648     16647     16651     16652     16648     16647     16651     16653
     16648     16647     16651     16654     16648     16647     16655     16656
     16648     16647     16655     16657     16648     16647     16655     16658
     16648     16647     16659     16660     16648     16647     16659     16661
     16648     16647     16659     16662     16648     16663     16669     16666
     16649     16648     16647     16651     16649     16648     16647     16655
     16649     16648     16647     16659     16649     16648     16663     16664
     16649     16648     16663     16665     16649     16648     16663     16669
     16650     16648     16647     16651     16650     16648     16647     16655
     16650     16648     16647     16659     16650     16648     16663     16664
     16650     16648     16663     16665     16650     16648     16663     16669
     16651     16647     16648     16663     16651     16647     16655     16656
     16651     16647     16655     16657     16651     16647     16655     16658
     16651     16647     16659     16660     16651     16647     16659     16661
     16651     16647     16659     16662     16652     16651     16647     16655
     16652     16651     16647     16659     16653     16651     16647     16655
     16653     16651     16647     16659     16654     16651     16647     16655
     16654     16651     16647     16659     16655     16647     16648     16663
     16655     16647     16659     16660     16655     16647     16659     16661
     16655     16647     16659     16662     16656     16655     16647     16659
     16657     16655     16647     16659     16658     16655     16647     16659
     16659     16647     16648     16663     16663     16669     16666     16667
     16663     16669     16666     16668     16663     16669     16666     16670
     16664     16663     16669     16666     16665     16663     16669     16666
     16666     16670     16671     16672     16666     16670     16671     16673
     16666     16670     16671     16674     16667     16666     16670     16671
     16668     16666     16670     16671     16669     16666     16670     16671
     16670     16671     16674     16675     16670     16671     16674     16676
     16670     16671     16674     16682     16671     16674     16676     16677
     16671     16674     16682     16683     16671     16674     16682     16684
     16671     16674     16682     16685     16672     16671     16674     16675
     16672     16671     16674     16676     16672     16671     16674     16682
     16673     16671     16674     16675     16673     16671     16674     16676
     16673     16671     16674     16682     16674     16676     16677     16678
     16674     16676     16677     16679     16674     16682     16685     16686
     16675     16674     16676     16677     16675     16674     16682     16683
     16675     16674     16682     16684     16675     16674     16682     16685
     16676     16674     16682     16683     16676     16674     16682     16684
     16676     16674     16682     16685     16676     16677     16679     16680
     16676     16677     16679     16681     16676     16677     16679     16691
     16677     16676     16674     16682     16677     16679     16691     16692
     16677     16679     16691     16693     16677     16679     16691     16694
     16678     16677     16679     16680     16678     16677     16679     16681
     16678     16677     16679     16691     16679     16691     16694     16695
     16679     16691     16694     16696     16679     16691     16694     16697
     16680     16679     16691     16692     16680     16679     16691     16693
     16680     16679     16691     16694     16681     16679     16691     16692
     16681     16679     16691     16693     16681     16679     16691     16694
     16682     16685     16686     16687     16682     16685     16686     16688
     16683     16682     16685     16686     16684     16682     16685     16686
     16685     16686     16688     16689     16685     16686     16688     16690
     16685     16686     16688     16738     16686     16688     16738     16739
     16686     16688     16738     16740     16686     16688     16738     16741
     16687     16686     16688     16689     16687     16686     16688     16690
     16687     16686     16688     16738     16688     16738     16741     16742
     16688     16738     16741     16743     16688     16738     16741     16744
     16689     16688     16738     16739     16689     16688     16738     16740
     16689     16688     16738     16741     16690     16688     16738     16739
     16690     16688     16738     16740     16690     16688     16738     16741
     16691     16694     16697     16698     16691     16694     16697     16699
     16691     16694     16697     16700     16692     16691     16694     16695
     16692     16691     16694     16696     16692     16691     16694     16697
     16693     16691     16694     16695     16693     16691     16694     16696
     16693     16691     16694     16697     16694     16697     16700     16701
     16694     16697     16700     16702     16694     16697     16700     16703
     16695     16694     16697     16698     16695     16694     16697     16699
     16695     16694     16697     16700     16696     16694     16697     16698
     16696     16694     16697     16699     16696     16694     16697     16700
     16697     16700     16703     16704     16697     16700     16703     16705
     16697     16700     16703     16706     16698     16697     16700     16701
     16698     16697     16700     16702     16698     16697     16700     16703
     16699     16697     16700     16701     16699     16697     16700     16702
     16699     16697     16700     16703     16700     16703     16706     16707
     16700     16703     16706     16708     16700     16703     16706     16709
     16701     16700     16703     16704     16701     16700     16703     16705
     16701     16700     16703     16706     16702     16700     16703     16704
     16702     16700     16703     16705     16702     16700     16703     16706
     16703     16706     16709     16710     16703     16706     16709     16711
     16704     16703     16706     16707     16704     16703     16706     16708
     16704     16703     16706     16709     16705     16703     16706     16707
     16705     16703     16706     16708     16705     16703     16706     16709
     16706     16709     16711     16712     16706     16709     16711     16713
     16707     16706     16709     16710     16707     16706     16709     16711
     16708     16706     16709     16710     16708     16706     16709     16711
     16709     16711     16713     16714     16709     16711     16713     16715
     16709     16711     16713     16716     16710     16709     16711     16712
     16710     16709     16711     16713     16711     16713     16716     16717
     16711     16713     16716     16718     16711     16713     16716     16719
     16712     16711     16713     16714     16712     16711     16713     16715
     16712     16711     16713     16716     16713     16716     16719     16720
     16713     16716     16719     16721     16713     16716     16719     16722
     16714     16713     16716     16717     16714     16713     16716     16718
     16714     16713     16716     16719     16715     16713     16716     16717
     16715     16713     16716     16718     16715     16713     16716     16719
     16716     16719     16722     16723     16716     16719     16722     16724
     16716     16719     16722     16725     16717     16716     16719     16720
     16717     16716     16719     16721     16717     16716     16719     16722
     16718     16716     16719     16720     16718     16716     16719     16721
     16718     16716     16719     16722     16719     16722     16725     16726
     16719     16722     16725     16727     16719     16722     16725     16728
     16720     16719     16722     16723     16720     16719     16722     16724
     16720     16719     16722     16725     16721     16719     16722     16723
     16721     16719     16722     16724     16721     16719     16722     16725
     16722     16725     16728     16729     16722     16725     16728     16730
     16722     16725     16728     16731     16723     16722     16725     16726
     16723     16722     16725     16727     16723     16722     16725     16728
     16724     16722     16725     16726     16724     16722     16725     16727
     16724     16722     16725     16728     16725     16728     16731     16732
     16725     16728     16731     16733     16725     16728     16731     16734
     16726     16725     16728     16729     16726     16725     16728     16730
     16726     16725     16728     16731     16727     16725     16728     16729
     16727     16725     16728     16730     16727     16725     16728     16731
     16728     16731     16734     16735     16728     16731     16734     16736
     16728     16731     16734     16737     16729     16728     16731     16732
     16729     16728     16731     16733     16729     16728     16731     16734
     16730     16728     16731     16732     16730     16728     16731     16733
     16730     16728     16731     16734     16732     16731     16734     16735
     16732     16731     16734     16736     16732     16731     16734     16737
     16733     16731     16734     16735     16733     16731     16734     16736
     16733     16731     16734     16737     16738     16741     16744     16745
     16738     16741     16744     16746     16738     16741     16744     16747
     16739     16738     16741     16742     16739     16738     16741     16743
     16739     16738     16741     16744     16740     16738     16741     16742
     16740     16738     16741     16743     16740     16738     16741     16744
     16741     16744     16747     16748     16741     16744     16747     16749
     16741     16744     16747     16750     16742     16741     16744     16745
     16742     16741     16744     16746     16742     16741     16744     16747
     16743     16741     16744     16745     16743     16741     16744     16746
     16743     16741     16744     16747     16744     16747     16750     16751
     16744     16747     16750     16752     16744     16747     16750     16753
     16745     16744     16747     16748     16745     16744     16747     16749
     16745     16744     16747     16750     16746     16744     16747     16748
     16746     16744     16747     16749     16746     16744     16747     16750
     16747     16750     16753     16754     16747     16750     16753     16755
     16747     16750     16753     16756     16748     16747     16750     16751
     16748     16747     16750     16752     16748     16747     16750     16753
     16749     16747     16750     16751     16749     16747     16750     16752
     16749     16747     16750     16753     16750     16753     16756     16757
     16750     16753     16756     16758     16751     16750     16753     16754
     16751     16750     16753     16755     16751     16750     16753     16756
     16752     16750     16753     16754     16752     16750     16753     16755
     16752     16750     16753     16756     16753     16756     16758     16759
     16753     16756     16758     16760     16754     16753     16756     16757
     16754     16753     16756     16758     16755     16753     16756     16757
     16755     16753     16756     16758     16756     16758     16760     16761
     16756     16758     16760     16762     16756     16758     16760     16763
     16757     16756     16758     16759     16757     16756     16758     16760
     16758     16760     16763     16764     16758     16760     16763     16765
     16758     16760     16763     16766     16759     16758     16760     16761
     16759     16758     16760     16762     16759     16758     16760     16763
     16760     16763     16766     16767     16760     16763     16766     16768
     16760     16763     16766     16769     16761     16760     16763     16764
     16761     16760     16763     16765     16761     16760     16763     16766
     16762     16760     16763     16764     16762     16760     16763     16765
     16762     16760     16763     16766     16763     16766     16769     16770
     16763     16766     16769     16771     16763     16766     16769     16772
     16764     16763     16766     16767     16764     16763     16766     16768
     16764     16763     16766     16769     16765     16763     16766     16767
     16765     16763     16766     16768     16765     16763     16766     16769
     16766     16769     16772     16773     16766     16769     16772     16774
     16766     16769     16772     16775     16767     16766     16769     16770
     16767     16766     16769     16771     16767     16766     16769     16772
     16768     16766     16769     16770     16768     16766     16769     16771
     16768     16766     16769     16772     16769     16772     16775     16776
     16769     16772     16775     16777     16769     16772     16775     16778
     16770     16769     16772     16773     16770     16769     16772     16774
     16770     16769     16772     16775     16771     16769     16772     16773
     16771     16769     16772     16774     16771     16769     16772     16775
     16772     16775     16778     16779     16772     16775     16778     16780
     16772     16775     16778     16781     16773     16772     16775     16776
     16773     16772     16775     16777     16773     16772     16775     16778
     16774     16772     16775     16776     16774     16772     16775     16777
     16774     16772     16775     16778     16775     16778     16781     16782
     16775     16778     16781     16783     16775     16778     16781     16784
     16776     16775     16778     16779     16776     16775     16778     16780
     16776     16775     16778     16781     16777     16775     16778     16779
     16777     16775     16778     16780     16777     16775     16778     16781
     16779     16778     16781     16782     16779     16778     16781     16783
     16779     16778     16781     16784     16780     16778     16781     16782
     16780     16778     16781     16783     16780     16778     16781     16784
     16785     16786     16801     16802     16785     16786     16801     16803
     16785     16786     16801     16807     16786     16785     16789     16790
     16786     16785     16789     16791     16786     16785     16789     16792
     16786     16785     16793     16794     16786     16785     16793     16795
     16786     16785     16793     16796     16786     16785     16797     16798
     16786     16785     16797     16799     16786     16785     16797     16800
     16786     16801     16807     16804     16787     16786     16785     16789
     16787     16786     16785     16793     16787     16786     16785     16797
     16787     16786     16801     16802     16787     16786     16801     16803
     16787     16786     16801     16807     16788     16786     16785     16789
     16788     16786     16785     16793     16788     16786     16785     16797
     16788     16786     16801     16802     16788     16786     16801     16803
     16788     16786     16801     16807     16789     16785     16786     16801
     16789     16785     16793     16794     16789     16785     16793     16795
     16789     16785     16793     16796     16789     16785     16797     16798
     16789     16785     16797     16799     16789     16785     16797     16800
     16790     16789     16785     16793     16790     16789     16785     16797
     16791     16789     16785     16793     16791     16789     16785     16797
     16792     16789     16785     16793     16792     16789     16785     16797
     16793     16785     16786     16801     16793     16785     16797     16798
     16793     16785     16797     16799     16793     16785     16797     16800
     16794     16793     16785     16797     16795     16793     16785     16797
     16796     16793     16785     16797     16797     16785     16786     16801
     16801     16807     16804     16805     16801     16807     16804     16806
     16801     16807     16804     16808     16802     16801     16807     16804
     16803     16801     16807     16804     16804     16808     16809     16810
     16804     16808     16809     16811     16804     16808     16809     16812
     16805     16804     16808     16809     16806     16804     16808     16809
     16807     16804     16808     16809     16808     16809     16812     16813
     16808     16809     16812     16814     16808     16809     16812     16820
     16809     16812     16814     16815     16809     16812     16820     16821
     16809     16812     16820     16822     16809     16812     16820     16823
     16810     16809     16812     16813     16810     16809     16812     16814
     16810     16809     16812     16820     16811     16809     16812     16813
     16811     16809     16812     16814     16811     16809     16812     16820
     16812     16814     16815     16816     16812     16814     16815     16817
     16812     16820     16823     16824     16813     16812     16814     16815
     16813     16812     16820     16821     16813     16812     16820     16822
     16813     16812     16820     16823     16814     16812     16820     16821
     16814     16812     16820     16822     16814     16812     16820     16823
     16814     16815     16817     16818     16814     16815     16817     16819
     16814     16815     16817     16829     16815     16814     16812     16820
     16815     16817     16829     16830     16815     16817     16829     16831
     16815     16817     16829     16832     16816     16815     16817     16818
     16816     16815     16817     16819     16816     16815     16817     16829
     16817     16829     16832     16833     16817     16829     16832     16834
     16817     16829     16832     16835     16818     16817     16829     16830
     16818     16817     16829     16831     16818     16817     16829     16832
     16819     16817     16829     16830     16819     16817     16829     16831
     16819     16817     16829     16832     16820     16823     16824     16825
     16820     16823     16824     16826     16821     16820     16823     16824
     16822     16820     16823     16824     16823     16824     16826     16827
     16823     16824     16826     16828     16823     16824     16826     16876
     16824     16826     16876     16877     16824     16826     16876     16878
     16824     16826     16876     16879     16825     16824     16826     16827
     16825     16824     16826     16828     16825     16824     16826     16876
     16826     16876     16879     16880     16826     16876     16879     16881
     16826     16876     16879     16882     16827     16826     16876     16877
     16827     16826     16876     16878     16827     16826     16876     16879
     16828     16826     16876     16877     16828     16826     16876     16878
     16828     16826     16876     16879     16829     16832     16835     16836
     16829     16832     16835     16837     16829     16832     16835     16838
     16830     16829     16832     16833     16830     16829     16832     16834
     16830     16829     16832     16835     16831     16829     16832     16833
     16831     16829     16832     16834     16831     16829     16832     16835
     16832     16835     16838     16839     16832     16835     16838     16840
     16832     16835     16838     16841     16833     16832     16835     16836
     16833     16832     16835     16837     16833     16832     16835     16838
     16834     16832     16835     16836     16834     16832     16835     16837
     16834     16832     16835     16838     16835     16838     16841     16842
     16835     16838     16841     16843     16835     16838     16841     16844
     16836     16835     16838     16839     16836     16835     16838     16840
     16836     16835     16838     16841     16837     16835     16838     16839
     16837     16835     16838     16840     16837     16835     16838     16841
     16838     16841     16844     16845     16838     16841     16844     16846
     16838     16841     16844     16847     16839     16838     16841     16842
     16839     16838     16841     16843     16839     16838     16841     16844
     16840     16838     16841     16842     16840     16838     16841     16843
     16840     16838     16841     16844     16841     16844     16847     16848
     16841     16844     16847     16849     16842     16841     16844     16845
     16842     16841     16844     16846     16842     16841     16844     16847
     16843     16841     16844     16845     16843     16841     16844     16846
     16843     16841     16844     16847     16844     16847     16849     16850
     16844     16847     16849     16851     16845     16844     16847     16848
     16845     16844     16847     16849     16846     16844     16847     16848
     16846     16844     16847     16849     16847     16849     16851     16852
     16847     16849     16851     16853     16847     16849     16851     16854
     16848     16847     16849     16850     16848     16847     16849     16851
     16849     16851     16854     16855     16849     16851     16854     16856
     16849     16851     16854     16857     16850     16849     16851     16852
     16850     16849     16851     16853     16850     16849     16851     16854
     16851     16854     16857     16858     16851     16854     16857     16859
     16851     16854     16857     16860     16852     16851     16854     16855
     16852     16851     16854     16856     16852     16851     16854     16857
     16853     16851     16854     16855     16853     16851     16854     16856
     16853     16851     16854     16857     16854     16857     16860     16861
     16854     16857     16860     16862     16854     16857     16860     16863
     16855     16854     16857     16858     16855     16854     16857     16859
     16855     16854     16857     16860     16856     16854     16857     16858
     16856     16854     16857     16859     16856     16854     16857     16860
     16857     16860     16863     16864     16857     16860     16863     16865
     16857     16860     16863     16866     16858     16857     16860     16861
     16858     16857     16860     16862     16858     16857     16860     16863
     16859     16857     16860     16861     16859     16857     16860     16862
     16859     16857     16860     16863     16860     16863     16866     16867
     16860     16863     16866     16868     16860     16863     16866     16869
     16861     16860     16863     16864     16861     16860     16863     16865
     16861     16860     16863     16866     16862     16860     16863     16864
     16862     16860     16863     16865     16862     16860     16863     16866
     16863     16866     16869     16870     16863     16866     16869     16871
     16863     16866     16869     16872     16864     16863     16866     16867
     16864     16863     16866     16868     16864     16863     16866     16869
     16865     16863     16866     16867     16865     16863     16866     16868
     16865     16863     16866     16869     16866     16869     16872     16873
     16866     16869     16872     16874     16866     16869     16872     16875
     16867     16866     16869     16870     16867     16866     16869     16871
     16867     16866     16869     16872     16868     16866     16869     16870
     16868     16866     16869     16871     16868     16866     16869     16872
     16870     16869     16872     16873     16870     16869     16872     16874
     16870     16869     16872     16875     16871     16869     16872     16873
     16871     16869     16872     16874     16871     16869     16872     16875
     16876     16879     16882     16883     16876     16879     16882     16884
     16876     16879     16882     16885     16877     16876     16879     16880
     16877     16876     16879     16881     16877     16876     16879     16882
     16878     16876     16879     16880     16878     16876     16879     16881
     16878     16876     16879     16882     16879     16882     16885     16886
     16879     16882     16885     16887     16879     16882     16885     16888
     16880     16879     16882     16883     16880     16879     16882     16884
     16880     16879     16882     16885     16881     16879     16882     16883
     16881     16879     16882     16884     16881     16879     16882     16885
     16882     16885     16888     16889     16882     16885     16888     16890
     16882     16885     16888     16891     16883     16882     16885     16886
     16883     16882     16885     16887     16883     16882     16885     16888
     16884     16882     16885     16886     16884     16882     16885     16887
     16884     16882     16885     16888     16885     16888     16891     16892
     16885     16888     16891     16893     16885     16888     16891     16894
     16886     16885     16888     16889     16886     16885     16888     16890
     16886     16885     16888     16891     16887     16885     16888     16889
     16887     16885     16888     16890     16887     16885     16888     16891
     16888     16891     16894     16895     16888     16891     16894     16896
     16889     16888     16891     16892     16889     16888     16891     16893
     16889     16888     16891     16894     16890     16888     16891     16892
     16890     16888     16891     16893     16890     16888     16891     16894
     16891     16894     16896     16897     16891     16894     16896     16898
     16892     16891     16894     16895     16892     16891     16894     16896
     16893     16891     16894     16895     16893     16891     16894     16896
     16894     16896     16898     16899     16894     16896     16898     16900
     16894     16896     16898     16901     16895     16894     16896     16897
     16895     16894     16896     16898     16896     16898     16901     16902
     16896     16898     16901     16903     16896     16898     16901     16904
     16897     16896     16898     16899     16897     16896     16898     16900
     16897     16896     16898     16901     16898     16901     16904     16905
     16898     16901     16904     16906     16898     16901     16904     16907
     16899     16898     16901     16902     16899     16898     16901     16903
     16899     16898     16901     16904     16900     16898     16901     16902
     16900     16898     16901     16903     16900     16898     16901     16904
     16901     16904     16907     16908     16901     16904     16907     16909
     16901     16904     16907     16910     16902     16901     16904     16905
     16902     16901     16904     16906     16902     16901     16904     16907
     16903     16901     16904     16905     16903     16901     16904     16906
     16903     16901     16904     16907     16904     16907     16910     16911
     16904     16907     16910     16912     16904     16907     16910     16913
     16905     16904     16907     16908     16905     16904     16907     16909
     16905     16904     16907     16910     16906     16904     16907     16908
     16906     16904     16907     16909     16906     16904     16907     16910
     16907     16910     16913     16914     16907     16910     16913     16915
     16907     16910     16913     16916     16908     16907     16910     16911
     16908     16907     16910     16912     16908     16907     16910     16913
     16909     16907     16910     16911     16909     16907     16910     16912
     16909     16907     16910     16913     16910     16913     16916     16917
     16910     16913     16916     16918     16910     16913     16916     16919
     16911     16910     16913     16914     16911     16910     16913     16915
     16911     16910     16913     16916     16912     16910     16913     16914
     16912     16910     16913     16915     16912     16910     16913     16916
     16913     16916     16919     16920     16913     16916     16919     16921
     16913     16916     16919     16922     16914     16913     16916     16917
     16914     16913     16916     16918     16914     16913     16916     16919
     16915     16913     16916     16917     16915     16913     16916     16918
     16915     16913     16916     16919     16917     16916     16919     16920
     16917     16916     16919     16921     16917     16916     16919     16922
     16918     16916     16919     16920     16918     16916     16919     16921
     16918     16916     16919     16922     16923     16924     16939     16940
     16923     16924     16939     16941     16923     16924     16939     16945
     16924     16923     16927     16928     16924     16923     16927     16929
     16924     16923     16927     16930     16924     16923     16931     16932
     16924     16923     16931     16933     16924     16923     16931     16934
     16924     16923     16935     16936     16924     16923     16935     16937
     16924     16923     16935     16938     16924     16939     16945     16942
     16925     16924     16923     16927     16925     16924     16923     16931
     16925     16924     16923     16935     16925     16924     16939     16940
     16925     16924     16939     16941     16925     16924     16939     16945
     16926     16924     16923     16927     16926     16924     16923     16931
     16926     16924     16923     16935     16926     16924     16939     16940
     16926     16924     16939     16941     16926     16924     16939     16945
     16927     16923     16924     16939     16927     16923     16931     16932
     16927     16923     16931     16933     16927     16923     16931     16934
     16927     16923     16935     16936     16927     16923     16935     16937
     16927     16923     16935     16938     16928     16927     16923     16931
     16928     16927     16923     16935     16929     16927     16923     16931
     16929     16927     16923     16935     16930     16927     16923     16931
     16930     16927     16923     16935     16931     16923     16924     16939
     16931     16923     16935     16936     16931     16923     16935     16937
     16931     16923     16935     16938     16932     16931     16923     16935
     16933     16931     16923     16935     16934     16931     16923     16935
     16935     16923     16924     16939     16939     16945     16942     16943
     16939     16945     16942     16944     16939     16945     16942     16946
     16940     16939     16945     16942     16941     16939     16945     16942
     16942     16946     16947     16948     16942     16946     16947     16949
     16942     16946     16947     16950     16943     16942     16946     16947
     16944     16942     16946     16947     16945     16942     16946     16947
     16946     16947     16950     16951     16946     16947     16950     16952
     16946     16947     16950     16958     16947     16950     16952     16953
     16947     16950     16958     16959     16947     16950     16958     16960
     16947     16950     16958     16961     16948     16947     16950     16951
     16948     16947     16950     16952     16948     16947     16950     16958
     16949     16947     16950     16951     16949     16947     16950     16952
     16949     16947     16950     16958     16950     16952     16953     16954
     16950     16952     16953     16955     16950     16958     16961     16962
     16951     16950     16952     16953     16951     16950     16958     16959
     16951     16950     16958     16960     16951     16950     16958     16961
     16952     16950     16958     16959     16952     16950     16958     16960
     16952     16950     16958     16961     16952     16953     16955     16956
     16952     16953     16955     16957     16952     16953     16955     16967
     16953     16952     16950     16958     16953     16955     16967     16968
     16953     16955     16967     16969     16953     16955     16967     16970
     16954     16953     16955     16956     16954     16953     16955     16957
     16954     16953     16955     16967     16955     16967     16970     16971
     16955     16967     16970     16972     16955     16967     16970     16973
     16956     16955     16967     16968     16956     16955     16967     16969
     16956     16955     16967     16970     16957     16955     16967     16968
     16957     16955     16967     16969     16957     16955     16967     16970
     16958     16961     16962     16963     16958     16961     16962     16964
     16959     16958     16961     16962     16960     16958     16961     16962
     16961     16962     16964     16965     16961     16962     16964     16966
     16961     16962     16964     17014     16962     16964     17014     17015
     16962     16964     17014     17016     16962     16964     17014     17017
     16963     16962     16964     16965     16963     16962     16964     16966
     16963     16962     16964     17014     16964     17014     17017     17018
     16964     17014     17017     17019     16964     17014     17017     17020
     16965     16964     17014     17015     16965     16964     17014     17016
     16965     16964     17014     17017     16966     16964     17014     17015
     16966     16964     17014     17016     16966     16964     17014     17017
     16967     16970     16973     16974     16967     16970     16973     16975
     16967     16970     16973     16976     16968     16967     16970     16971
     16968     16967     16970     16972     16968     16967     16970     16973
     16969     16967     16970     16971     16969     16967     16970     16972
     16969     16967     16970     16973     16970     16973     16976     16977
     16970     16973     16976     16978     16970     16973     16976     16979
     16971     16970     16973     16974     16971     16970     16973     16975
     16971     16970     16973     16976     16972     16970     16973     16974
     16972     16970     16973     16975     16972     16970     16973     16976
     16973     16976     16979     16980     16973     16976     16979     16981
     16973     16976     16979     16982     16974     16973     16976     16977
     16974     16973     16976     16978     16974     16973     16976     16979
     16975     16973     16976     16977     16975     16973     16976     16978
     16975     16973     16976     16979     16976     16979     16982     16983
     16976     16979     16982     16984     16976     16979     16982     16985
     16977     16976     16979     16980     16977     16976     16979     16981
     16977     16976     16979     16982     16978     16976     16979     16980
     16978     16976     16979     16981     16978     16976     16979     16982
     16979     16982     16985     16986     16979     16982     16985     16987
     16980     16979     16982     16983     16980     16979     16982     16984
     16980     16979     16982     16985     16981     16979     16982     16983
     16981     16979     16982     16984     16981     16979     16982     16985
     16982     16985     16987     16988     16982     16985     16987     16989
     16983     16982     16985     16986     16983     16982     16985     16987
     16984     16982     16985     16986     16984     16982     16985     16987
     16985     16987     16989     16990     16985     16987     16989     16991
     16985     16987     16989     16992     16986     16985     16987     16988
     16986     16985     16987     16989     16987     16989     16992     16993
     16987     16989     16992     16994     16987     16989     16992     16995
     16988     16987     16989     16990     16988     16987     16989     16991
     16988     16987     16989     16992     16989     16992     16995     16996
     16989     16992     16995     16997     16989     16992     16995     16998
     16990     16989     16992     16993     16990     16989     16992     16994
     16990     16989     16992     16995     16991     16989     16992     16993
     16991     16989     16992     16994     16991     16989     16992     16995
     16992     16995     16998     16999     16992     16995     16998     17000
     16992     16995     16998     17001     16993     16992     16995     16996
     16993     16992     16995     16997     16993     16992     16995     16998
     16994     16992     16995     16996     16994     16992     16995     16997
     16994     16992     16995     16998     16995     16998     17001     17002
     16995     16998     17001     17003     16995     16998     17001     17004
     16996     16995     16998     16999     16996     16995     16998     17000
     16996     16995     16998     17001     16997     16995     16998     16999
     16997     16995     16998     17000     16997     16995     16998     17001
     16998     17001     17004     17005     16998     17001     17004     17006
     16998     17001     17004     17007     16999     16998     17001     17002
     16999     16998     17001     17003     16999     16998     17001     17004
     17000     16998     17001     17002     17000     16998     17001     17003
     17000     16998     17001     17004     17001     17004     17007     17008
     17001     17004     17007     17009     17001     17004     17007     17010
     17002     17001     17004     17005     17002     17001     17004     17006
     17002     17001     17004     17007     17003     17001     17004     17005
     17003     17001     17004     17006     17003     17001     17004     17007
     17004     17007     17010     17011     17004     17007     17010     17012
     17004     17007     17010     17013     17005     17004     17007     17008
     17005     17004     17007     17009     17005     17004     17007     17010
     17006     17004     17007     17008     17006     17004     17007     17009
     17006     17004     17007     17010     17008     17007     17010     17011
     17008     17007     17010     17012     17008     17007     17010     17013
     17009     17007     17010     17011     17009     17007     17010     17012
     17009     17007     17010     17013     17014     17017     17020     17021
     17014     17017     17020     17022     17014     17017     17020     17023
     17015     17014     17017     17018     17015     17014     17017     17019
     17015     17014     17017     17020     17016     17014     17017     17018
     17016     17014     17017     17019     17016     17014     17017     17020
     17017     17020     17023     17024     17017     17020     17023     17025
     17017     17020     17023     17026     17018     17017     17020     17021
     17018     17017     17020     17022     17018     17017     17020     17023
     17019     17017     17020     17021     17019     17017     17020     17022
     17019     17017     17020     17023     17020     17023     17026     17027
     17020     17023     17026     17028     17020     17023     17026     17029
     17021     17020     17023     17024     17021     17020     17023     17025
     17021     17020     17023     17026     17022     17020     17023     17024
     17022     17020     17023     17025     17022     17020     17023     17026
     17023     17026     17029     17030     17023     17026     17029     17031
     17023     17026     17029     17032     17024     17023     17026     17027
     17024     17023     17026     17028     17024     17023     17026     17029
     17025     17023     17026     17027     17025     17023     17026     17028
     17025     17023     17026     17029     17026     17029     17032     17033
     17026     17029     17032     17034     17027     17026     17029     17030
     17027     17026     17029     17031     17027     17026     17029     17032
     17028     17026     17029     17030     17028     17026     17029     17031
     17028     17026     17029     17032     17029     17032     17034     17035
     17029     17032     17034     17036     17030     17029     17032     17033
     17030     17029     17032     17034     17031     17029     17032     17033
     17031     17029     17032     17034     17032     17034     17036     17037
     17032     17034     17036     17038     17032     17034     17036     17039
     17033     17032     17034     17035     17033     17032     17034     17036
     17034     17036     17039     17040     17034     17036     17039     17041
     17034     17036     17039     17042     17035     17034     17036     17037
     17035     17034     17036     17038     17035     17034     17036     17039
     17036     17039     17042     17043     17036     17039     17042     17044
     17036     17039     17042     17045     17037     17036     17039     17040
     17037     17036     17039     17041     17037     17036     17039     17042
     17038     17036     17039     17040     17038     17036     17039     17041
     17038     17036     17039     17042     17039     17042     17045     17046
     17039     17042     17045     17047     17039     17042     17045     17048
     17040     17039     17042     17043     17040     17039     17042     17044
     17040     17039     17042     17045     17041     17039     17042     17043
     17041     17039     17042     17044     17041     17039     17042     17045
     17042     17045     17048     17049     17042     17045     17048     17050
     17042     17045     17048     17051     17043     17042     17045     17046
     17043     17042     17045     17047     17043     17042     17045     17048
     17044     17042     17045     17046     17044     17042     17045     17047
     17044     17042     17045     17048     17045     17048     17051     17052
     17045     17048     17051     17053     17045     17048     17051     17054
     17046     17045     17048     17049     17046     17045     17048     17050
     17046     17045     17048     17051     17047     17045     17048     17049
     17047     17045     17048     17050     17047     17045     17048     17051
     17048     17051     17054     17055     17048     17051     17054     17056
     17048     17051     17054     17057     17049     17048     17051     17052
     17049     17048     17051     17053     17049     17048     17051     17054
     17050     17048     17051     17052     17050     17048     17051     17053
     17050     17048     17051     17054     17051     17054     17057     17058
     17051     17054     17057     17059     17051     17054     17057     17060
     17052     17051     17054     17055     17052     17051     17054     17056
     17052     17051     17054     17057     17053     17051     17054     17055
     17053     17051     17054     17056     17053     17051     17054     17057
     17055     17054     17057     17058     17055     17054     17057     17059
     17055     17054     17057     17060     17056     17054     17057     17058
     17056     17054     17057     17059     17056     17054     17057     17060
     17061     17062     17077     17078     17061     17062     17077     17079
     17061     17062     17077     17083     17062     17061     17065     17066
     17062     17061     17065     17067     17062     17061     17065     17068
     17062     17061     17069     17070     17062     17061     17069     17071
     17062     17061     17069     17072     17062     17061     17073     17074
     17062     17061     17073     17075     17062     17061     17073     17076
     17062     17077     17083     17080     17063     17062     17061     17065
     17063     17062     17061     17069     17063     17062     17061     17073
     17063     17062     17077     17078     17063     17062     17077     17079
     17063     17062     17077     17083     17064     17062     17061     17065
     17064     17062     17061     17069     17064     17062     17061     17073
     17064     17062     17077     17078     17064     17062     17077     17079
     17064     17062     17077     17083     17065     17061     17062     17077
     17065     17061     17069     17070     17065     17061     17069     17071
     17065     17061     17069     17072     17065     17061     17073     17074
     17065     17061     17073     17075     17065     17061     17073     17076
     17066     17065     17061     17069     17066     17065     17061     17073
     17067     17065     17061     17069     17067     17065     17061     17073
     17068     17065     17061     17069     17068     17065     17061     17073
     17069     17061     17062     17077     17069     17061     17073     17074
     17069     17061     17073     17075     17069     17061     17073     17076
     17070     17069     17061     17073     17071     17069     17061     17073
     17072     17069     17061     17073     17073     17061     17062     17077
     17077     17083     17080     17081     17077     17083     17080     17082
     17077     17083     17080     17084     17078     17077     17083     17080
     17079     17077     17083     17080     17080     17084     17085     17086
     17080     17084     17085     17087     17080     17084     17085     17088
     17081     17080     17084     17085     17082     17080     17084     17085
     17083     17080     17084     17085     17084     17085     17088     17089
     17084     17085     17088     17090     17084     17085     17088     17096
     17085     17088     17090     17091     17085     17088     17096     17097
     17085     17088     17096     17098     17085     17088     17096     17099
     17086     17085     17088     17089     17086     17085     17088     17090
     17086     17085     17088     17096     17087     17085     17088     17089
     17087     17085     17088     17090     17087     17085     17088     17096
     17088     17090     17091     17092     17088     17090     17091     17093
     17088     17096     17099     17100     17089     17088     17090     17091
     17089     17088     17096     17097     17089     17088     17096     17098
     17089     17088     17096     17099     17090     17088     17096     17097
     17090     17088     17096     17098     17090     17088     17096     17099
     17090     17091     17093     17094     17090     17091     17093     17095
     17090     17091     17093     17105     17091     17090     17088     17096
     17091     17093     17105     17106     17091     17093     17105     17107
     17091     17093     17105     17108     17092     17091     17093     17094
     17092     17091     17093     17095     17092     17091     17093     17105
     17093     17105     17108     17109     17093     17105     17108     17110
     17093     17105     17108     17111     17094     17093     17105     17106
     17094     17093     17105     17107     17094     17093     17105     17108
     17095     17093     17105     17106     17095     17093     17105     17107
     17095     17093     17105     17108     17096     17099     17100     17101
     17096     17099     17100     17102     17097     17096     17099     17100
     17098     17096     17099     17100     17099     17100     17102     17103
     17099     17100     17102     17104     17099     17100     17102     17152
     17100     17102     17152     17153     17100     17102     17152     17154
     17100     17102     17152     17155     17101     17100     17102     17103
     17101     17100     17102     17104     17101     17100     17102     17152
     17102     17152     17155     17156     17102     17152     17155     17157
     17102     17152     17155     17158     17103     17102     17152     17153
     17103     17102     17152     17154     17103     17102     17152     17155
     17104     17102     17152     17153     17104     17102     17152     17154
     17104     17102     17152     17155     17105     17108     17111     17112
     17105     17108     17111     17113     17105     17108     17111     17114
     17106     17105     17108     17109     17106     17105     17108     17110
     17106     17105     17108     17111     17107     17105     17108     17109
     17107     17105     17108     17110     17107     17105     17108     17111
     17108     17111     17114     17115     17108     17111     17114     17116
     17108     17111     17114     17117     17109     17108     17111     17112
     17109     17108     17111     17113     17109     17108     17111     17114
     17110     17108     17111     17112     17110     17108     17111     17113
     17110     17108     17111     17114     17111     17114     17117     17118
     17111     17114     17117     17119     17111     17114     17117     17120
     17112     17111     17114     17115     17112     17111     17114     17116
     17112     17111     17114     17117     17113     17111     17114     17115
     17113     17111     17114     17116     17113     17111     17114     17117
     17114     17117     17120     17121     17114     17117     17120     17122
     17114     17117     17120     17123     17115     17114     17117     17118
     17115     17114     17117     17119     17115     17114     17117     17120
     17116     17114     17117     17118     17116     17114     17117     17119
     17116     17114     17117     17120     17117     17120     17123     17124
     17117     17120     17123     17125     17118     17117     17120     17121
     17118     17117     17120     17122     17118     17117     17120     17123
     17119     17117     17120     17121     17119     17117     17120     17122
     17119     17117     17120     17123     17120     17123     17125     17126
     17120     17123     17125     17127     17121     17120     17123     17124
     17121     17120     17123     17125     17122     17120     17123     17124
     17122     17120     17123     17125     17123     17125     17127     17128
     17123     17125     17127     17129     17123     17125     17127     17130
     17124     17123     17125     17126     17124     17123     17125     17127
     17125     17127     17130     17131     17125     17127     17130     17132
     17125     17127     17130     17133     17126     17125     17127     17128
     17126     17125     17127     17129     17126     17125     17127     17130
     17127     17130     17133     17134     17127     17130     17133     17135
     17127     17130     17133     17136     17128     17127     17130     17131
     17128     17127     17130     17132     17128     17127     17130     17133
     17129     17127     17130     17131     17129     17127     17130     17132
     17129     17127     17130     17133     17130     17133     17136     17137
     17130     17133     17136     17138     17130     17133     17136     17139
     17131     17130     17133     17134     17131     17130     17133     17135
     17131     17130     17133     17136     17132     17130     17133     17134
     17132     17130     17133     17135     17132     17130     17133     17136
     17133     17136     17139     17140     17133     17136     17139     17141
     17133     17136     17139     17142     17134     17133     17136     17137
     17134     17133     17136     17138     17134     17133     17136     17139
     17135     17133     17136     17137     17135     17133     17136     17138
     17135     17133     17136     17139     17136     17139     17142     17143
     17136     17139     17142     17144     17136     17139     17142     17145
     17137     17136     17139     17140     17137     17136     17139     17141
     17137     17136     17139     17142     17138     17136     17139     17140
     17138     17136     17139     17141     17138     17136     17139     17142
     17139     17142     17145     17146     17139     17142     17145     17147
     17139     17142     17145     17148     17140     17139     17142     17143
     17140     17139     17142     17144     17140     17139     17142     17145
     17141     17139     17142     17143     17141     17139     17142     17144
     17141     17139     17142     17145     17142     17145     17148     17149
     17142     17145     17148     17150     17142     17145     17148     17151
     17143     17142     17145     17146     17143     17142     17145     17147
     17143     17142     17145     17148     17144     17142     17145     17146
     17144     17142     17145     17147     17144     17142     17145     17148
     17146     17145     17148     17149     17146     17145     17148     17150
     17146     17145     17148     17151     17147     17145     17148     17149
     17147     17145     17148     17150     17147     17145     17148     17151
     17152     17155     17158     17159     17152     17155     17158     17160
     17152     17155     17158     17161     17153     17152     17155     17156
     17153     17152     17155     17157     17153     17152     17155     17158
     17154     17152     17155     17156     17154     17152     17155     17157
     17154     17152     17155     17158     17155     17158     17161     17162
     17155     17158     17161     17163     17155     17158     17161     17164
     17156     17155     17158     17159     17156     17155     17158     17160
     17156     17155     17158     17161     17157     17155     17158     17159
     17157     17155     17158     17160     17157     17155     17158     17161
     17158     17161     17164     17165     17158     17161     17164     17166
     17158     17161     17164     17167     17159     17158     17161     17162
     17159     17158     17161     17163     17159     17158     17161     17164
     17160     17158     17161     17162     17160     17158     17161     17163
     17160     17158     17161     17164     17161     17164     17167     17168
     17161     17164     17167     17169     17161     17164     17167     17170
     17162     17161     17164     17165     17162     17161     17164     17166
     17162     17161     17164     17167     17163     17161     17164     17165
     17163     17161     17164     17166     17163     17161     17164     17167
     17164     17167     17170     17171     17164     17167     17170     17172
     17165     17164     17167     17168     17165     17164     17167     17169
     17165     17164     17167     17170     17166     17164     17167     17168
     17166     17164     17167     17169     17166     17164     17167     17170
     17167     17170     17172     17173     17167     17170     17172     17174
     17168     17167     17170     17171     17168     17167     17170     17172
     17169     17167     17170     17171     17169     17167     17170     17172
     17170     17172     17174     17175     17170     17172     17174     17176
     17170     17172     17174     17177     17171     17170     17172     17173
     17171     17170     17172     17174     17172     17174     17177     17178
     17172     17174     17177     17179     17172     17174     17177     17180
     17173     17172     17174     17175     17173     17172     17174     17176
     17173     17172     17174     17177     17174     17177     17180     17181
     17174     17177     17180     17182     17174     17177     17180     17183
     17175     17174     17177     17178     17175     17174     17177     17179
     17175     17174     17177     17180     17176     17174     17177     17178
     17176     17174     17177     17179     17176     17174     17177     17180
     17177     17180     17183     17184     17177     17180     17183     17185
     17177     17180     17183     17186     17178     17177     17180     17181
     17178     17177     17180     17182     17178     17177     17180     17183
     17179     17177     17180     17181     17179     17177     17180     17182
     17179     17177     17180     17183     17180     17183     17186     17187
     17180     17183     17186     17188     17180     17183     17186     17189
     17181     17180     17183     17184     17181     17180     17183     17185
     17181     17180     17183     17186     17182     17180     17183     17184
     17182     17180     17183     17185     17182     17180     17183     17186
     17183     17186     17189     17190     17183     17186     17189     17191
     17183     17186     17189     17192     17184     17183     17186     17187
     17184     17183     17186     17188     17184     17183     17186     17189
     17185     17183     17186     17187     17185     17183     17186     17188
     17185     17183     17186     17189     17186     17189     17192     17193
     17186     17189     17192     17194     17186     17189     17192     17195
     17187     17186     17189     17190     17187     17186     17189     17191
     17187     17186     17189     17192     17188     17186     17189     17190
     17188     17186     17189     17191     17188     17186     17189     17192
     17189     17192     17195     17196     17189     17192     17195     17197
     17189     17192     17195     17198     17190     17189     17192     17193
     17190     17189     17192     17194     17190     17189     17192     17195
     17191     17189     17192     17193     17191     17189     17192     17194
     17191     17189     17192     17195     17193     17192     17195     17196
     17193     17192     17195     17197     17193     17192     17195     17198
     17194     17192     17195     17196     17194     17192     17195     17197
     17194     17192     17195     17198     17199     17200     17215     17216
     17199     17200     17215     17217     17199     17200     17215     17221
     17200     17199     17203     17204     17200     17199     17203     17205
     17200     17199     17203     17206     17200     17199     17207     17208
     17200     17199     17207     17209     17200     17199     17207     17210
     17200     17199     17211     17212     17200     17199     17211     17213
     17200     17199     17211     17214     17200     17215     17221     17218
     17201     17200     17199     17203     17201     17200     17199     17207
     17201     17200     17199     17211     17201     17200     17215     17216
     17201     17200     17215     17217     17201     17200     17215     17221
     17202     17200     17199     17203     17202     17200     17199     17207
     17202     17200     17199     17211     17202     17200     17215     17216
     17202     17200     17215     17217     17202     17200     17215     17221
     17203     17199     17200     17215     17203     17199     17207     17208
     17203     17199     17207     17209     17203     17199     17207     17210
     17203     17199     17211     17212     17203     17199     17211     17213
     17203     17199     17211     17214     17204     17203     17199     17207
     17204     17203     17199     17211     17205     17203     17199     17207
     17205     17203     17199     17211     17206     17203     17199     17207
     17206     17203     17199     17211     17207     17199     17200     17215
     17207     17199     17211     17212     17207     17199     17211     17213
     17207     17199     17211     17214     17208     17207     17199     17211
     17209     17207     17199     17211     17210     17207     17199     17211
     17211     17199     17200     17215     17215     17221     17218     17219
     17215     17221     17218     17220     17215     17221     17218     17222
     17216     17215     17221     17218     17217     17215     17221     17218
     17218     17222     17223     17224     17218     17222     17223     17225
     17218     17222     17223     17226     17219     17218     17222     17223
     17220     17218     17222     17223     17221     17218     17222     17223
     17222     17223     17226     17227     17222     17223     17226     17228
     17222     17223     17226     17234     17223     17226     17228     17229
     17223     17226     17234     17235     17223     17226     17234     17236
     17223     17226     17234     17237     17224     17223     17226     17227
     17224     17223     17226     17228     17224     17223     17226     17234
     17225     17223     17226     17227     17225     17223     17226     17228
     17225     17223     17226     17234     17226     17228     17229     17230
     17226     17228     17229     17231     17226     17234     17237     17238
     17227     17226     17228     17229     17227     17226     17234     17235
     17227     17226     17234     17236     17227     17226     17234     17237
     17228     17226     17234     17235     17228     17226     17234     17236
     17228     17226     17234     17237     17228     17229     17231     17232
     17228     17229     17231     17233     17228     17229     17231     17243
     17229     17228     17226     17234     17229     17231     17243     17244
     17229     17231     17243     17245     17229     17231     17243     17246
     17230     17229     17231     17232     17230     17229     17231     17233
     17230     17229     17231     17243     17231     17243     17246     17247
     17231     17243     17246     17248     17231     17243     17246     17249
     17232     17231     17243     17244     17232     17231     17243     17245
     17232     17231     17243     17246     17233     17231     17243     17244
     17233     17231     17243     17245     17233     17231     17243     17246
     17234     17237     17238     17239     17234     17237     17238     17240
     17235     17234     17237     17238     17236     17234     17237     17238
     17237     17238     17240     17241     17237     17238     17240     17242
     17237     17238     17240     17290     17238     17240     17290     17291
     17238     17240     17290     17292     17238     17240     17290     17293
     17239     17238     17240     17241     17239     17238     17240     17242
     17239     17238     17240     17290     17240     17290     17293     17294
     17240     17290     17293     17295     17240     17290     17293     17296
     17241     17240     17290     17291     17241     17240     17290     17292
     17241     17240     17290     17293     17242     17240     17290     17291
     17242     17240     17290     17292     17242     17240     17290     17293
     17243     17246     17249     17250     17243     17246     17249     17251
     17243     17246     17249     17252     17244     17243     17246     17247
     17244     17243     17246     17248     17244     17243     17246     17249
     17245     17243     17246     17247     17245     17243     17246     17248
     17245     17243     17246     17249     17246     17249     17252     17253
     17246     17249     17252     17254     17246     17249     17252     17255
     17247     17246     17249     17250     17247     17246     17249     17251
     17247     17246     17249     17252     17248     17246     17249     17250
     17248     17246     17249     17251     17248     17246     17249     17252
     17249     17252     17255     17256     17249     17252     17255     17257
     17249     17252     17255     17258     17250     17249     17252     17253
     17250     17249     17252     17254     17250     17249     17252     17255
     17251     17249     17252     17253     17251     17249     17252     17254
     17251     17249     17252     17255     17252     17255     17258     17259
     17252     17255     17258     17260     17252     17255     17258     17261
     17253     17252     17255     17256     17253     17252     17255     17257
     17253     17252     17255     17258     17254     17252     17255     17256
     17254     17252     17255     17257     17254     17252     17255     17258
     17255     17258     17261     17262     17255     17258     17261     17263
     17256     17255     17258     17259     17256     17255     17258     17260
     17256     17255     17258     17261     17257     17255     17258     17259
     17257     17255     17258     17260     17257     17255     17258     17261
     17258     17261     17263     17264     17258     17261     17263     17265
     17259     17258     17261     17262     17259     17258     17261     17263
     17260     17258     17261     17262     17260     17258     17261     17263
     17261     17263     17265     17266     17261     17263     17265     17267
     17261     17263     17265     17268     17262     17261     17263     17264
     17262     17261     17263     17265     17263     17265     17268     17269
     17263     17265     17268     17270     17263     17265     17268     17271
     17264     17263     17265     17266     17264     17263     17265     17267
     17264     17263     17265     17268     17265     17268     17271     17272
     17265     17268     17271     17273     17265     17268     17271     17274
     17266     17265     17268     17269     17266     17265     17268     17270
     17266     17265     17268     17271     17267     17265     17268     17269
     17267     17265     17268     17270     17267     17265     17268     17271
     17268     17271     17274     17275     17268     17271     17274     17276
     17268     17271     17274     17277     17269     17268     17271     17272
     17269     17268     17271     17273     17269     17268     17271     17274
     17270     17268     17271     17272     17270     17268     17271     17273
     17270     17268     17271     17274     17271     17274     17277     17278
     17271     17274     17277     17279     17271     17274     17277     17280
     17272     17271     17274     17275     17272     17271     17274     17276
     17272     17271     17274     17277     17273     17271     17274     17275
     17273     17271     17274     17276     17273     17271     17274     17277
     17274     17277     17280     17281     17274     17277     17280     17282
     17274     17277     17280     17283     17275     17274     17277     17278
     17275     17274     17277     17279     17275     17274     17277     17280
     17276     17274     17277     17278     17276     17274     17277     17279
     17276     17274     17277     17280     17277     17280     17283     17284
     17277     17280     17283     17285     17277     17280     17283     17286
     17278     17277     17280     17281     17278     17277     17280     17282
     17278     17277     17280     17283     17279     17277     17280     17281
     17279     17277     17280     17282     17279     17277     17280     17283
     17280     17283     17286     17287     17280     17283     17286     17288
     17280     17283     17286     17289     17281     17280     17283     17284
     17281     17280     17283     17285     17281     17280     17283     17286
     17282     17280     17283     17284     17282     17280     17283     17285
     17282     17280     17283     17286     17284     17283     17286     17287
     17284     17283     17286     17288     17284     17283     17286     17289
     17285     17283     17286     17287     17285     17283     17286     17288
     17285     17283     17286     17289     17290     17293     17296     17297
     17290     17293     17296     17298     17290     17293     17296     17299
     17291     17290     17293     17294     17291     17290     17293     17295
     17291     17290     17293     17296     17292     17290     17293     17294
     17292     17290     17293     17295     17292     17290     17293     17296
     17293     17296     17299     17300     17293     17296     17299     17301
     17293     17296     17299     17302     17294     17293     17296     17297
     17294     17293     17296     17298     17294     17293     17296     17299
     17295     17293     17296     17297     17295     17293     17296     17298
     17295     17293     17296     17299     17296     17299     17302     17303
     17296     17299     17302     17304     17296     17299     17302     17305
     17297     17296     17299     17300     17297     17296     17299     17301
     17297     17296     17299     17302     17298     17296     17299     17300
     17298     17296     17299     17301     17298     17296     17299     17302
     17299     17302     17305     17306     17299     17302     17305     17307
     17299     17302     17305     17308     17300     17299     17302     17303
     17300     17299     17302     17304     17300     17299     17302     17305
     17301     17299     17302     17303     17301     17299     17302     17304
     17301     17299     17302     17305     17302     17305     17308     17309
     17302     17305     17308     17310     17303     17302     17305     17306
     17303     17302     17305     17307     17303     17302     17305     17308
     17304     17302     17305     17306     17304     17302     17305     17307
     17304     17302     17305     17308     17305     17308     17310     17311
     17305     17308     17310     17312     17306     17305     17308     17309
     17306     17305     17308     17310     17307     17305     17308     17309
     17307     17305     17308     17310     17308     17310     17312     17313
     17308     17310     17312     17314     17308     17310     17312     17315
     17309     17308     17310     17311     17309     17308     17310     17312
     17310     17312     17315     17316     17310     17312     17315     17317
     17310     17312     17315     17318     17311     17310     17312     17313
     17311     17310     17312     17314     17311     17310     17312     17315
     17312     17315     17318     17319     17312     17315     17318     17320
     17312     17315     17318     17321     17313     17312     17315     17316
     17313     17312     17315     17317     17313     17312     17315     17318
     17314     17312     17315     17316     17314     17312     17315     17317
     17314     17312     17315     17318     17315     17318     17321     17322
     17315     17318     17321     17323     17315     17318     17321     17324
     17316     17315     17318     17319     17316     17315     17318     17320
     17316     17315     17318     17321     17317     17315     17318     17319
     17317     17315     17318     17320     17317     17315     17318     17321
     17318     17321     17324     17325     17318     17321     17324     17326
     17318     17321     17324     17327     17319     17318     17321     17322
     17319     17318     17321     17323     17319     17318     17321     17324
     17320     17318     17321     17322     17320     17318     17321     17323
     17320     17318     17321     17324     17321     17324     17327     17328
     17321     17324     17327     17329     17321     17324     17327     17330
     17322     17321     17324     17325     17322     17321     17324     17326
     17322     17321     17324     17327     17323     17321     17324     17325
     17323     17321     17324     17326     17323     17321     17324     17327
     17324     17327     17330     17331     17324     17327     17330     17332
     17324     17327     17330     17333     17325     17324     17327     17328
     17325     17324     17327     17329     17325     17324     17327     17330
     17326     17324     17327     17328     17326     17324     17327     17329
     17326     17324     17327     17330     17327     17330     17333     17334
     17327     17330     17333     17335     17327     17330     17333     17336
     17328     17327     17330     17331     17328     17327     17330     17332
     17328     17327     17330     17333     17329     17327     17330     17331
     17329     17327     17330     17332     17329     17327     17330     17333
     17331     17330     17333     17334     17331     17330     17333     17335
     17331     17330     17333     17336     17332     17330     17333     17334
     17332     17330     17333     17335     17332     17330     17333     17336
     17337     17338     17353     17354     17337     17338     17353     17355
     17337     17338     17353     17359     17338     17337     17341     17342
     17338     17337     17341     17343     17338     17337     17341     17344
     17338     17337     17345     17346     17338     17337     17345     17347
     17338     17337     17345     17348     17338     17337     17349     17350
     17338     17337     17349     17351     17338     17337     17349     17352
     17338     17353     17359     17356     17339     17338     17337     17341
     17339     17338     17337     17345     17339     17338     17337     17349
     17339     17338     17353     17354     17339     17338     17353     17355
     17339     17338     17353     17359     17340     17338     17337     17341
     17340     17338     17337     17345     17340     17338     17337     17349
     17340     17338     17353     17354     17340     17338     17353     17355
     17340     17338     17353     17359     17341     17337     17338     17353
     17341     17337     17345     17346     17341     17337     17345     17347
     17341     17337     17345     17348     17341     17337     17349     17350
     17341     17337     17349     17351     17341     17337     17349     17352
     17342     17341     17337     17345     17342     17341     17337     17349
     17343     17341     17337     17345     17343     17341     17337     17349
     17344     17341     17337     17345     17344     17341     17337     17349
     17345     17337     17338     17353     17345     17337     17349     17350
     17345     17337     17349     17351     17345     17337     17349     17352
     17346     17345     17337     17349     17347     17345     17337     17349
     17348     17345     17337     17349     17349     17337     17338     17353
     17353     17359     17356     17357     17353     17359     17356     17358
     17353     17359     17356     17360     17354     17353     17359     17356
     17355     17353     17359     17356     17356     17360     17361     17362
     17356     17360     17361     17363     17356     17360     17361     17364
     17357     17356     17360     17361     17358     17356     17360     17361
     17359     17356     17360     17361     17360     17361     17364     17365
     17360     17361     17364     17366     17360     17361     17364     17372
     17361     17364     17366     17367     17361     17364     17372     17373
     17361     17364     17372     17374     17361     17364     17372     17375
     17362     17361     17364     17365     17362     17361     17364     17366
     17362     17361     17364     17372     17363     17361     17364     17365
     17363     17361     17364     17366     17363     17361     17364     17372
     17364     17366     17367     17368     17364     17366     17367     17369
     17364     17372     17375     17376     17365     17364     17366     17367
     17365     17364     17372     17373     17365     17364     17372     17374
     17365     17364     17372     17375     17366     17364     17372     17373
     17366     17364     17372     17374     17366     17364     17372     17375
     17366     17367     17369     17370     17366     17367     17369     17371
     17366     17367     17369     17381     17367     17366     17364     17372
     17367     17369     17381     17382     17367     17369     17381     17383
     17367     17369     17381     17384     17368     17367     17369     17370
     17368     17367     17369     17371     17368     17367     17369     17381
     17369     17381     17384     17385     17369     17381     17384     17386
     17369     17381     17384     17387     17370     17369     17381     17382
     17370     17369     17381     17383     17370     17369     17381     17384
     17371     17369     17381     17382     17371     17369     17381     17383
     17371     17369     17381     17384     17372     17375     17376     17377
     17372     17375     17376     17378     17373     17372     17375     17376
     17374     17372     17375     17376     17375     17376     17378     17379
     17375     17376     17378     17380     17375     17376     17378     17428
     17376     17378     17428     17429     17376     17378     17428     17430
     17376     17378     17428     17431     17377     17376     17378     17379
     17377     17376     17378     17380     17377     17376     17378     17428
     17378     17428     17431     17432     17378     17428     17431     17433
     17378     17428     17431     17434     17379     17378     17428     17429
     17379     17378     17428     17430     17379     17378     17428     17431
     17380     17378     17428     17429     17380     17378     17428     17430
     17380     17378     17428     17431     17381     17384     17387     17388
     17381     17384     17387     17389     17381     17384     17387     17390
     17382     17381     17384     17385     17382     17381     17384     17386
     17382     17381     17384     17387     17383     17381     17384     17385
     17383     17381     17384     17386     17383     17381     17384     17387
     17384     17387     17390     17391     17384     17387     17390     17392
     17384     17387     17390     17393     17385     17384     17387     17388
     17385     17384     17387     17389     17385     17384     17387     17390
     17386     17384     17387     17388     17386     17384     17387     17389
     17386     17384     17387     17390     17387     17390     17393     17394
     17387     17390     17393     17395     17387     17390     17393     17396
     17388     17387     17390     17391     17388     17387     17390     17392
     17388     17387     17390     17393     17389     17387     17390     17391
     17389     17387     17390     17392     17389     17387     17390     17393
     17390     17393     17396     17397     17390     17393     17396     17398
     17390     17393     17396     17399     17391     17390     17393     17394
     17391     17390     17393     17395     17391     17390     17393     17396
     17392     17390     17393     17394     17392     17390     17393     17395
     17392     17390     17393     17396     17393     17396     17399     17400
     17393     17396     17399     17401     17394     17393     17396     17397
     17394     17393     17396     17398     17394     17393     17396     17399
     17395     17393     17396     17397     17395     17393     17396     17398
     17395     17393     17396     17399     17396     17399     17401     17402
     17396     17399     17401     17403     17397     17396     17399     17400
     17397     17396     17399     17401     17398     17396     17399     17400
     17398     17396     17399     17401     17399     17401     17403     17404
     17399     17401     17403     17405     17399     17401     17403     17406
     17400     17399     17401     17402     17400     17399     17401     17403
     17401     17403     17406     17407     17401     17403     17406     17408
     17401     17403     17406     17409     17402     17401     17403     17404
     17402     17401     17403     17405     17402     17401     17403     17406
     17403     17406     17409     17410     17403     17406     17409     17411
     17403     17406     17409     17412     17404     17403     17406     17407
     17404     17403     17406     17408     17404     17403     17406     17409
     17405     17403     17406     17407     17405     17403     17406     17408
     17405     17403     17406     17409     17406     17409     17412     17413
     17406     17409     17412     17414     17406     17409     17412     17415
     17407     17406     17409     17410     17407     17406     17409     17411
     17407     17406     17409     17412     17408     17406     17409     17410
     17408     17406     17409     17411     17408     17406     17409     17412
     17409     17412     17415     17416     17409     17412     17415     17417
     17409     17412     17415     17418     17410     17409     17412     17413
     17410     17409     17412     17414     17410     17409     17412     17415
     17411     17409     17412     17413     17411     17409     17412     17414
     17411     17409     17412     17415     17412     17415     17418     17419
     17412     17415     17418     17420     17412     17415     17418     17421
     17413     17412     17415     17416     17413     17412     17415     17417
     17413     17412     17415     17418     17414     17412     17415     17416
     17414     17412     17415     17417     17414     17412     17415     17418
     17415     17418     17421     17422     17415     17418     17421     17423
     17415     17418     17421     17424     17416     17415     17418     17419
     17416     17415     17418     17420     17416     17415     17418     17421
     17417     17415     17418     17419     17417     17415     17418     17420
     17417     17415     17418     17421     17418     17421     17424     17425
     17418     17421     17424     17426     17418     17421     17424     17427
     17419     17418     17421     17422     17419     17418     17421     17423
     17419     17418     17421     17424     17420     17418     17421     17422
     17420     17418     17421     17423     17420     17418     17421     17424
     17422     17421     17424     17425     17422     17421     17424     17426
     17422     17421     17424     17427     17423     17421     17424     17425
     17423     17421     17424     17426     17423     17421     17424     17427
     17428     17431     17434     17435     17428     17431     17434     17436
     17428     17431     17434     17437     17429     17428     17431     17432
     17429     17428     17431     17433     17429     17428     17431     17434
     17430     17428     17431     17432     17430     17428     17431     17433
     17430     17428     17431     17434     17431     17434     17437     17438
     17431     17434     17437     17439     17431     17434     17437     17440
     17432     17431     17434     17435     17432     17431     17434     17436
     17432     17431     17434     17437     17433     17431     17434     17435
     17433     17431     17434     17436     17433     17431     17434     17437
     17434     17437     17440     17441     17434     17437     17440     17442
     17434     17437     17440     17443     17435     17434     17437     17438
     17435     17434     17437     17439     17435     17434     17437     17440
     17436     17434     17437     17438     17436     17434     17437     17439
     17436     17434     17437     17440     17437     17440     17443     17444
     17437     17440     17443     17445     17437     17440     17443     17446
     17438     17437     17440     17441     17438     17437     17440     17442
     17438     17437     17440     17443     17439     17437     17440     17441
     17439     17437     17440     17442     17439     17437     17440     17443
     17440     17443     17446     17447     17440     17443     17446     17448
     17441     17440     17443     17444     17441     17440     17443     17445
     17441     17440     17443     17446     17442     17440     17443     17444
     17442     17440     17443     17445     17442     17440     17443     17446
     17443     17446     17448     17449     17443     17446     17448     17450
     17444     17443     17446     17447     17444     17443     17446     17448
     17445     17443     17446     17447     17445     17443     17446     17448
     17446     17448     17450     17451     17446     17448     17450     17452
     17446     17448     17450     17453     17447     17446     17448     17449
     17447     17446     17448     17450     17448     17450     17453     17454
     17448     17450     17453     17455     17448     17450     17453     17456
     17449     17448     17450     17451     17449     17448     17450     17452
     17449     17448     17450     17453     17450     17453     17456     17457
     17450     17453     17456     17458     17450     17453     17456     17459
     17451     17450     17453     17454     17451     17450     17453     17455
     17451     17450     17453     17456     17452     17450     17453     17454
     17452     17450     17453     17455     17452     17450     17453     17456
     17453     17456     17459     17460     17453     17456     17459     17461
     17453     17456     17459     17462     17454     17453     17456     17457
     17454     17453     17456     17458     17454     17453     17456     17459
     17455     17453     17456     17457     17455     17453     17456     17458
     17455     17453     17456     17459     17456     17459     17462     17463
     17456     17459     17462     17464     17456     17459     17462     17465
     17457     17456     17459     17460     17457     17456     17459     17461
     17457     17456     17459     17462     17458     17456     17459     17460
     17458     17456     17459     17461     17458     17456     17459     17462
     17459     17462     17465     17466     17459     17462     17465     17467
     17459     17462     17465     17468     17460     17459     17462     17463
     17460     17459     17462     17464     17460     17459     17462     17465
     17461     17459     17462     17463     17461     17459     17462     17464
     17461     17459     17462     17465     17462     17465     17468     17469
     17462     17465     17468     17470     17462     17465     17468     17471
     17463     17462     17465     17466     17463     17462     17465     17467
     17463     17462     17465     17468     17464     17462     17465     17466
     17464     17462     17465     17467     17464     17462     17465     17468
     17465     17468     17471     17472     17465     17468     17471     17473
     17465     17468     17471     17474     17466     17465     17468     17469
     17466     17465     17468     17470     17466     17465     17468     17471
     17467     17465     17468     17469     17467     17465     17468     17470
     17467     17465     17468     17471     17469     17468     17471     17472
     17469     17468     17471     17473     17469     17468     17471     17474
     17470     17468     17471     17472     17470     17468     17471     17473
     17470     17468     17471     17474     17475     17476     17491     17492
     17475     17476     17491     17493     17475     17476     17491     17497
     17476     17475     17479     17480     17476     17475     17479     17481
     17476     17475     17479     17482     17476     17475     17483     17484
     17476     17475     17483     17485     17476     17475     17483     17486
     17476     17475     17487     17488     17476     17475     17487     17489
     17476     17475     17487     17490     17476     17491     17497     17494
     17477     17476     17475     17479     17477     17476     17475     17483
     17477     17476     17475     17487     17477     17476     17491     17492
     17477     17476     17491     17493     17477     17476     17491     17497
     17478     17476     17475     17479     17478     17476     17475     17483
     17478     17476     17475     17487     17478     17476     17491     17492
     17478     17476     17491     17493     17478     17476     17491     17497
     17479     17475     17476     17491     17479     17475     17483     17484
     17479     17475     17483     17485     17479     17475     17483     17486
     17479     17475     17487     17488     17479     17475     17487     17489
     17479     17475     17487     17490     17480     17479     17475     17483
     17480     17479     17475     17487     17481     17479     17475     17483
     17481     17479     17475     17487     17482     17479     17475     17483
     17482     17479     17475     17487     17483     17475     17476     17491
     17483     17475     17487     17488     17483     17475     17487     17489
     17483     17475     17487     17490     17484     17483     17475     17487
     17485     17483     17475     17487     17486     17483     17475     17487
     17487     17475     17476     17491     17491     17497     17494     17495
     17491     17497     17494     17496     17491     17497     17494     17498
     17492     17491     17497     17494     17493     17491     17497     17494
     17494     17498     17499     17500     17494     17498     17499     17501
     17494     17498     17499     17502     17495     17494     17498     17499
     17496     17494     17498     17499     17497     17494     17498     17499
     17498     17499     17502     17503     17498     17499     17502     17504
     17498     17499     17502     17510     17499     17502     17504     17505
     17499     17502     17510     17511     17499     17502     17510     17512
     17499     17502     17510     17513     17500     17499     17502     17503
     17500     17499     17502     17504     17500     17499     17502     17510
     17501     17499     17502     17503     17501     17499     17502     17504
     17501     17499     17502     17510     17502     17504     17505     17506
     17502     17504     17505     17507     17502     17510     17513     17514
     17503     17502     17504     17505     17503     17502     17510     17511
     17503     17502     17510     17512     17503     17502     17510     17513
     17504     17502     17510     17511     17504     17502     17510     17512
     17504     17502     17510     17513     17504     17505     17507     17508
     17504     17505     17507     17509     17504     17505     17507     17519
     17505     17504     17502     17510     17505     17507     17519     17520
     17505     17507     17519     17521     17505     17507     17519     17522
     17506     17505     17507     17508     17506     17505     17507     17509
     17506     17505     17507     17519     17507     17519     17522     17523
     17507     17519     17522     17524     17507     17519     17522     17525
     17508     17507     17519     17520     17508     17507     17519     17521
     17508     17507     17519     17522     17509     17507     17519     17520
     17509     17507     17519     17521     17509     17507     17519     17522
     17510     17513     17514     17515     17510     17513     17514     17516
     17511     17510     17513     17514     17512     17510     17513     17514
     17513     17514     17516     17517     17513     17514     17516     17518
     17513     17514     17516     17566     17514     17516     17566     17567
     17514     17516     17566     17568     17514     17516     17566     17569
     17515     17514     17516     17517     17515     17514     17516     17518
     17515     17514     17516     17566     17516     17566     17569     17570
     17516     17566     17569     17571     17516     17566     17569     17572
     17517     17516     17566     17567     17517     17516     17566     17568
     17517     17516     17566     17569     17518     17516     17566     17567
     17518     17516     17566     17568     17518     17516     17566     17569
     17519     17522     17525     17526     17519     17522     17525     17527
     17519     17522     17525     17528     17520     17519     17522     17523
     17520     17519     17522     17524     17520     17519     17522     17525
     17521     17519     17522     17523     17521     17519     17522     17524
     17521     17519     17522     17525     17522     17525     17528     17529
     17522     17525     17528     17530     17522     17525     17528     17531
     17523     17522     17525     17526     17523     17522     17525     17527
     17523     17522     17525     17528     17524     17522     17525     17526
     17524     17522     17525     17527     17524     17522     17525     17528
     17525     17528     17531     17532     17525     17528     17531     17533
     17525     17528     17531     17534     17526     17525     17528     17529
     17526     17525     17528     17530     17526     17525     17528     17531
     17527     17525     17528     17529     17527     17525     17528     17530
     17527     17525     17528     17531     17528     17531     17534     17535
     17528     17531     17534     17536     17528     17531     17534     17537
     17529     17528     17531     17532     17529     17528     17531     17533
     17529     17528     17531     17534     17530     17528     17531     17532
     17530     17528     17531     17533     17530     17528     17531     17534
     17531     17534     17537     17538     17531     17534     17537     17539
     17532     17531     17534     17535     17532     17531     17534     17536
     17532     17531     17534     17537     17533     17531     17534     17535
     17533     17531     17534     17536     17533     17531     17534     17537
     17534     17537     17539     17540     17534     17537     17539     17541
     17535     17534     17537     17538     17535     17534     17537     17539
     17536     17534     17537     17538     17536     17534     17537     17539
     17537     17539     17541     17542     17537     17539     17541     17543
     17537     17539     17541     17544     17538     17537     17539     17540
     17538     17537     17539     17541     17539     17541     17544     17545
     17539     17541     17544     17546     17539     17541     17544     17547
     17540     17539     17541     17542     17540     17539     17541     17543
     17540     17539     17541     17544     17541     17544     17547     17548
     17541     17544     17547     17549     17541     17544     17547     17550
     17542     17541     17544     17545     17542     17541     17544     17546
     17542     17541     17544     17547     17543     17541     17544     17545
     17543     17541     17544     17546     17543     17541     17544     17547
     17544     17547     17550     17551     17544     17547     17550     17552
     17544     17547     17550     17553     17545     17544     17547     17548
     17545     17544     17547     17549     17545     17544     17547     17550
     17546     17544     17547     17548     17546     17544     17547     17549
     17546     17544     17547     17550     17547     17550     17553     17554
     17547     17550     17553     17555     17547     17550     17553     17556
     17548     17547     17550     17551     17548     17547     17550     17552
     17548     17547     17550     17553     17549     17547     17550     17551
     17549     17547     17550     17552     17549     17547     17550     17553
     17550     17553     17556     17557     17550     17553     17556     17558
     17550     17553     17556     17559     17551     17550     17553     17554
     17551     17550     17553     17555     17551     17550     17553     17556
     17552     17550     17553     17554     17552     17550     17553     17555
     17552     17550     17553     17556     17553     17556     17559     17560
     17553     17556     17559     17561     17553     17556     17559     17562
     17554     17553     17556     17557     17554     17553     17556     17558
     17554     17553     17556     17559     17555     17553     17556     17557
     17555     17553     17556     17558     17555     17553     17556     17559
     17556     17559     17562     17563     17556     17559     17562     17564
     17556     17559     17562     17565     17557     17556     17559     17560
     17557     17556     17559     17561     17557     17556     17559     17562
     17558     17556     17559     17560     17558     17556     17559     17561
     17558     17556     17559     17562     17560     17559     17562     17563
     17560     17559     17562     17564     17560     17559     17562     17565
     17561     17559     17562     17563     17561     17559     17562     17564
     17561     17559     17562     17565     17566     17569     17572     17573
     17566     17569     17572     17574     17566     17569     17572     17575
     17567     17566     17569     17570     17567     17566     17569     17571
     17567     17566     17569     17572     17568     17566     17569     17570
     17568     17566     17569     17571     17568     17566     17569     17572
     17569     17572     17575     17576     17569     17572     17575     17577
     17569     17572     17575     17578     17570     17569     17572     17573
     17570     17569     17572     17574     17570     17569     17572     17575
     17571     17569     17572     17573     17571     17569     17572     17574
     17571     17569     17572     17575     17572     17575     17578     17579
     17572     17575     17578     17580     17572     17575     17578     17581
     17573     17572     17575     17576     17573     17572     17575     17577
     17573     17572     17575     17578     17574     17572     17575     17576
     17574     17572     17575     17577     17574     17572     17575     17578
     17575     17578     17581     17582     17575     17578     17581     17583
     17575     17578     17581     17584     17576     17575     17578     17579
     17576     17575     17578     17580     17576     17575     17578     17581
     17577     17575     17578     17579     17577     17575     17578     17580
     17577     17575     17578     17581     17578     17581     17584     17585
     17578     17581     17584     17586     17579     17578     17581     17582
     17579     17578     17581     17583     17579     17578     17581     17584
     17580     17578     17581     17582     17580     17578     17581     17583
     17580     17578     17581     17584     17581     17584     17586     17587
     17581     17584     17586     17588     17582     17581     17584     17585
     17582     17581     17584     17586     17583     17581     17584     17585
     17583     17581     17584     17586     17584     17586     17588     17589
     17584     17586     17588     17590     17584     17586     17588     17591
     17585     17584     17586     17587     17585     17584     17586     17588
     17586     17588     17591     17592     17586     17588     17591     17593
     17586     17588     17591     17594     17587     17586     17588     17589
     17587     17586     17588     17590     17587     17586     17588     17591
     17588     17591     17594     17595     17588     17591     17594     17596
     17588     17591     17594     17597     17589     17588     17591     17592
     17589     17588     17591     17593     17589     17588     17591     17594
     17590     17588     17591     17592     17590     17588     17591     17593
     17590     17588     17591     17594     17591     17594     17597     17598
     17591     17594     17597     17599     17591     17594     17597     17600
     17592     17591     17594     17595     17592     17591     17594     17596
     17592     17591     17594     17597     17593     17591     17594     17595
     17593     17591     17594     17596     17593     17591     17594     17597
     17594     17597     17600     17601     17594     17597     17600     17602
     17594     17597     17600     17603     17595     17594     17597     17598
     17595     17594     17597     17599     17595     17594     17597     17600
     17596     17594     17597     17598     17596     17594     17597     17599
     17596     17594     17597     17600     17597     17600     17603     17604
     17597     17600     17603     17605     17597     17600     17603     17606
     17598     17597     17600     17601     17598     17597     17600     17602
     17598     17597     17600     17603     17599     17597     17600     17601
     17599     17597     17600     17602     17599     17597     17600     17603
     17600     17603     17606     17607     17600     17603     17606     17608
     17600     17603     17606     17609     17601     17600     17603     17604
     17601     17600     17603     17605     17601     17600     17603     17606
     17602     17600     17603     17604     17602     17600     17603     17605
     17602     17600     17603     17606     17603     17606     17609     17610
     17603     17606     17609     17611     17603     17606     17609     17612
     17604     17603     17606     17607     17604     17603     17606     17608
     17604     17603     17606     17609     17605     17603     17606     17607
     17605     17603     17606     17608     17605     17603     17606     17609
     17607     17606     17609     17610     17607     17606     17609     17611
     17607     17606     17609     17612     17608     17606     17609     17610
     17608     17606     17609     17611     17608     17606     17609     17612
     17613     17614     17629     17630     17613     17614     17629     17631
     17613     17614     17629     17635     17614     17613     17617     17618
     17614     17613     17617     17619     17614     17613     17617     17620
     17614     17613     17621     17622     17614     17613     17621     17623
     17614     17613     17621     17624     17614     17613     17625     17626
     17614     17613     17625     17627     17614     17613     17625     17628
     17614     17629     17635     17632     17615     17614     17613     17617
     17615     17614     17613     17621     17615     17614     17613     17625
     17615     17614     17629     17630     17615     17614     17629     17631
     17615     17614     17629     17635     17616     17614     17613     17617
     17616     17614     17613     17621     17616     17614     17613     17625
     17616     17614     17629     17630     17616     17614     17629     17631
     17616     17614     17629     17635     17617     17613     17614     17629
     17617     17613     17621     17622     17617     17613     17621     17623
     17617     17613     17621     17624     17617     17613     17625     17626
     17617     17613     17625     17627     17617     17613     17625     17628
     17618     17617     17613     17621     17618     17617     17613     17625
     17619     17617     17613     17621     17619     17617     17613     17625
     17620     17617     17613     17621     17620     17617     17613     17625
     17621     17613     17614     17629     17621     17613     17625     17626
     17621     17613     17625     17627     17621     17613     17625     17628
     17622     17621     17613     17625     17623     17621     17613     17625
     17624     17621     17613     17625     17625     17613     17614     17629
     17629     17635     17632     17633     17629     17635     17632     17634
     17629     17635     17632     17636     17630     17629     17635     17632
     17631     17629     17635     17632     17632     17636     17637     17638
     17632     17636     17637     17639     17632     17636     17637     17640
     17633     17632     17636     17637     17634     17632     17636     17637
     17635     17632     17636     17637     17636     17637     17640     17641
     17636     17637     17640     17642     17636     17637     17640     17648
     17637     17640     17642     17643     17637     17640     17648     17649
     17637     17640     17648     17650     17637     17640     17648     17651
     17638     17637     17640     17641     17638     17637     17640     17642
     17638     17637     17640     17648     17639     17637     17640     17641
     17639     17637     17640     17642     17639     17637     17640     17648
     17640     17642     17643     17644     17640     17642     17643     17645
     17640     17648     17651     17652     17641     17640     17642     17643
     17641     17640     17648     17649     17641     17640     17648     17650
     17641     17640     17648     17651     17642     17640     17648     17649
     17642     17640     17648     17650     17642     17640     17648     17651
     17642     17643     17645     17646     17642     17643     17645     17647
     17642     17643     17645     17657     17643     17642     17640     17648
     17643     17645     17657     17658     17643     17645     17657     17659
     17643     17645     17657     17660     17644     17643     17645     17646
     17644     17643     17645     17647     17644     17643     17645     17657
     17645     17657     17660     17661     17645     17657     17660     17662
     17645     17657     17660     17663     17646     17645     17657     17658
     17646     17645     17657     17659     17646     17645     17657     17660
     17647     17645     17657     17658     17647     17645     17657     17659
     17647     17645     17657     17660     17648     17651     17652     17653
     17648     17651     17652     17654     17649     17648     17651     17652
     17650     17648     17651     17652     17651     17652     17654     17655
     17651     17652     17654     17656     17651     17652     17654     17704
     17652     17654     17704     17705     17652     17654     17704     17706
     17652     17654     17704     17707     17653     17652     17654     17655
     17653     17652     17654     17656     17653     17652     17654     17704
     17654     17704     17707     17708     17654     17704     17707     17709
     17654     17704     17707     17710     17655     17654     17704     17705
     17655     17654     17704     17706     17655     17654     17704     17707
     17656     17654     17704     17705     17656     17654     17704     17706
     17656     17654     17704     17707     17657     17660     17663     17664
     17657     17660     17663     17665     17657     17660     17663     17666
     17658     17657     17660     17661     17658     17657     17660     17662
     17658     17657     17660     17663     17659     17657     17660     17661
     17659     17657     17660     17662     17659     17657     17660     17663
     17660     17663     17666     17667     17660     17663     17666     17668
     17660     17663     17666     17669     17661     17660     17663     17664
     17661     17660     17663     17665     17661     17660     17663     17666
     17662     17660     17663     17664     17662     17660     17663     17665
     17662     17660     17663     17666     17663     17666     17669     17670
     17663     17666     17669     17671     17663     17666     17669     17672
     17664     17663     17666     17667     17664     17663     17666     17668
     17664     17663     17666     17669     17665     17663     17666     17667
     17665     17663     17666     17668     17665     17663     17666     17669
     17666     17669     17672     17673     17666     17669     17672     17674
     17666     17669     17672     17675     17667     17666     17669     17670
     17667     17666     17669     17671     17667     17666     17669     17672
     17668     17666     17669     17670     17668     17666     17669     17671
     17668     17666     17669     17672     17669     17672     17675     17676
     17669     17672     17675     17677     17670     17669     17672     17673
     17670     17669     17672     17674     17670     17669     17672     17675
     17671     17669     17672     17673     17671     17669     17672     17674
     17671     17669     17672     17675     17672     17675     17677     17678
     17672     17675     17677     17679     17673     17672     17675     17676
     17673     17672     17675     17677     17674     17672     17675     17676
     17674     17672     17675     17677     17675     17677     17679     17680
     17675     17677     17679     17681     17675     17677     17679     17682
     17676     17675     17677     17678     17676     17675     17677     17679
     17677     17679     17682     17683     17677     17679     17682     17684
     17677     17679     17682     17685     17678     17677     17679     17680
     17678     17677     17679     17681     17678     17677     17679     17682
     17679     17682     17685     17686     17679     17682     17685     17687
     17679     17682     17685     17688     17680     17679     17682     17683
     17680     17679     17682     17684     17680     17679     17682     17685
     17681     17679     17682     17683     17681     17679     17682     17684
     17681     17679     17682     17685     17682     17685     17688     17689
     17682     17685     17688     17690     17682     17685     17688     17691
     17683     17682     17685     17686     17683     17682     17685     17687
     17683     17682     17685     17688     17684     17682     17685     17686
     17684     17682     17685     17687     17684     17682     17685     17688
     17685     17688     17691     17692     17685     17688     17691     17693
     17685     17688     17691     17694     17686     17685     17688     17689
     17686     17685     17688     17690     17686     17685     17688     17691
     17687     17685     17688     17689     17687     17685     17688     17690
     17687     17685     17688     17691     17688     17691     17694     17695
     17688     17691     17694     17696     17688     17691     17694     17697
     17689     17688     17691     17692     17689     17688     17691     17693
     17689     17688     17691     17694     17690     17688     17691     17692
     17690     17688     17691     17693     17690     17688     17691     17694
     17691     17694     17697     17698     17691     17694     17697     17699
     17691     17694     17697     17700     17692     17691     17694     17695
     17692     17691     17694     17696     17692     17691     17694     17697
     17693     17691     17694     17695     17693     17691     17694     17696
     17693     17691     17694     17697     17694     17697     17700     17701
     17694     17697     17700     17702     17694     17697     17700     17703
     17695     17694     17697     17698     17695     17694     17697     17699
     17695     17694     17697     17700     17696     17694     17697     17698
     17696     17694     17697     17699     17696     17694     17697     17700
     17698     17697     17700     17701     17698     17697     17700     17702
     17698     17697     17700     17703     17699     17697     17700     17701
     17699     17697     17700     17702     17699     17697     17700     17703
     17704     17707     17710     17711     17704     17707     17710     17712
     17704     17707     17710     17713     17705     17704     17707     17708
     17705     17704     17707     17709     17705     17704     17707     17710
     17706     17704     17707     17708     17706     17704     17707     17709
     17706     17704     17707     17710     17707     17710     17713     17714
     17707     17710     17713     17715     17707     17710     17713     17716
     17708     17707     17710     17711     17708     17707     17710     17712
     17708     17707     17710     17713     17709     17707     17710     17711
     17709     17707     17710     17712     17709     17707     17710     17713
     17710     17713     17716     17717     17710     17713     17716     17718
     17710     17713     17716     17719     17711     17710     17713     17714
     17711     17710     17713     17715     17711     17710     17713     17716
     17712     17710     17713     17714     17712     17710     17713     17715
     17712     17710     17713     17716     17713     17716     17719     17720
     17713     17716     17719     17721     17713     17716     17719     17722
     17714     17713     17716     17717     17714     17713     17716     17718
     17714     17713     17716     17719     17715     17713     17716     17717
     17715     17713     17716     17718     17715     17713     17716     17719
     17716     17719     17722     17723     17716     17719     17722     17724
     17717     17716     17719     17720     17717     17716     17719     17721
     17717     17716     17719     17722     17718     17716     17719     17720
     17718     17716     17719     17721     17718     17716     17719     17722
     17719     17722     17724     17725     17719     17722     17724     17726
     17720     17719     17722     17723     17720     17719     17722     17724
     17721     17719     17722     17723     17721     17719     17722     17724
     17722     17724     17726     17727     17722     17724     17726     17728
     17722     17724     17726     17729     17723     17722     17724     17725
     17723     17722     17724     17726     17724     17726     17729     17730
     17724     17726     17729     17731     17724     17726     17729     17732
     17725     17724     17726     17727     17725     17724     17726     17728
     17725     17724     17726     17729     17726     17729     17732     17733
     17726     17729     17732     17734     17726     17729     17732     17735
     17727     17726     17729     17730     17727     17726     17729     17731
     17727     17726     17729     17732     17728     17726     17729     17730
     17728     17726     17729     17731     17728     17726     17729     17732
     17729     17732     17735     17736     17729     17732     17735     17737
     17729     17732     17735     17738     17730     17729     17732     17733
     17730     17729     17732     17734     17730     17729     17732     17735
     17731     17729     17732     17733     17731     17729     17732     17734
     17731     17729     17732     17735     17732     17735     17738     17739
     17732     17735     17738     17740     17732     17735     17738     17741
     17733     17732     17735     17736     17733     17732     17735     17737
     17733     17732     17735     17738     17734     17732     17735     17736
     17734     17732     17735     17737     17734     17732     17735     17738
     17735     17738     17741     17742     17735     17738     17741     17743
     17735     17738     17741     17744     17736     17735     17738     17739
     17736     17735     17738     17740     17736     17735     17738     17741
     17737     17735     17738     17739     17737     17735     17738     17740
     17737     17735     17738     17741     17738     17741     17744     17745
     17738     17741     17744     17746     17738     17741     17744     17747
     17739     17738     17741     17742     17739     17738     17741     17743
     17739     17738     17741     17744     17740     17738     17741     17742
     17740     17738     17741     17743     17740     17738     17741     17744
     17741     17744     17747     17748     17741     17744     17747     17749
     17741     17744     17747     17750     17742     17741     17744     17745
     17742     17741     17744     17746     17742     17741     17744     17747
     17743     17741     17744     17745     17743     17741     17744     17746
     17743     17741     17744     17747     17745     17744     17747     17748
     17745     17744     17747     17749     17745     17744     17747     17750
     17746     17744     17747     17748     17746     17744     17747     17749
     17746     17744     17747     17750     17751     17752     17767     17768
     17751     17752     17767     17769     17751     17752     17767     17773
     17752     17751     17755     17756     17752     17751     17755     17757
     17752     17751     17755     17758     17752     17751     17759     17760
     17752     17751     17759     17761     17752     17751     17759     17762
     17752     17751     17763     17764     17752     17751     17763     17765
     17752     17751     17763     17766     17752     17767     17773     17770
     17753     17752     17751     17755     17753     17752     17751     17759
     17753     17752     17751     17763     17753     17752     17767     17768
     17753     17752     17767     17769     17753     17752     17767     17773
     17754     17752     17751     17755     17754     17752     17751     17759
     17754     17752     17751     17763     17754     17752     17767     17768
     17754     17752     17767     17769     17754     17752     17767     17773
     17755     17751     17752     17767     17755     17751     17759     17760
     17755     17751     17759     17761     17755     17751     17759     17762
     17755     17751     17763     17764     17755     17751     17763     17765
     17755     17751     17763     17766     17756     17755     17751     17759
     17756     17755     17751     17763     17757     17755     17751     17759
     17757     17755     17751     17763     17758     17755     17751     17759
     17758     17755     17751     17763     17759     17751     17752     17767
     17759     17751     17763     17764     17759     17751     17763     17765
     17759     17751     17763     17766     17760     17759     17751     17763
     17761     17759     17751     17763     17762     17759     17751     17763
     17763     17751     17752     17767     17767     17773     17770     17771
     17767     17773     17770     17772     17767     17773     17770     17774
     17768     17767     17773     17770     17769     17767     17773     17770
     17770     17774     17775     17776     17770     17774     17775     17777
     17770     17774     17775     17778     17771     17770     17774     17775
     17772     17770     17774     17775     17773     17770     17774     17775
     17774     17775     17778     17779     17774     17775     17778     17780
     17774     17775     17778     17786     17775     17778     17780     17781
     17775     17778     17786     17787     17775     17778     17786     17788
     17775     17778     17786     17789     17776     17775     17778     17779
     17776     17775     17778     17780     17776     17775     17778     17786
     17777     17775     17778     17779     17777     17775     17778     17780
     17777     17775     17778     17786     17778     17780     17781     17782
     17778     17780     17781     17783     17778     17786     17789     17790
     17779     17778     17780     17781     17779     17778     17786     17787
     17779     17778     17786     17788     17779     17778     17786     17789
     17780     17778     17786     17787     17780     17778     17786     17788
     17780     17778     17786     17789     17780     17781     17783     17784
     17780     17781     17783     17785     17780     17781     17783     17795
     17781     17780     17778     17786     17781     17783     17795     17796
     17781     17783     17795     17797     17781     17783     17795     17798
     17782     17781     17783     17784     17782     17781     17783     17785
     17782     17781     17783     17795     17783     17795     17798     17799
     17783     17795     17798     17800     17783     17795     17798     17801
     17784     17783     17795     17796     17784     17783     17795     17797
     17784     17783     17795     17798     17785     17783     17795     17796
     17785     17783     17795     17797     17785     17783     17795     17798
     17786     17789     17790     17791     17786     17789     17790     17792
     17787     17786     17789     17790     17788     17786     17789     17790
     17789     17790     17792     17793     17789     17790     17792     17794
     17789     17790     17792     17842     17790     17792     17842     17843
     17790     17792     17842     17844     17790     17792     17842     17845
     17791     17790     17792     17793     17791     17790     17792     17794
     17791     17790     17792     17842     17792     17842     17845     17846
     17792     17842     17845     17847     17792     17842     17845     17848
     17793     17792     17842     17843     17793     17792     17842     17844
     17793     17792     17842     17845     17794     17792     17842     17843
     17794     17792     17842     17844     17794     17792     17842     17845
     17795     17798     17801     17802     17795     17798     17801     17803
     17795     17798     17801     17804     17796     17795     17798     17799
     17796     17795     17798     17800     17796     17795     17798     17801
     17797     17795     17798     17799     17797     17795     17798     17800
     17797     17795     17798     17801     17798     17801     17804     17805
     17798     17801     17804     17806     17798     17801     17804     17807
     17799     17798     17801     17802     17799     17798     17801     17803
     17799     17798     17801     17804     17800     17798     17801     17802
     17800     17798     17801     17803     17800     17798     17801     17804
     17801     17804     17807     17808     17801     17804     17807     17809
     17801     17804     17807     17810     17802     17801     17804     17805
     17802     17801     17804     17806     17802     17801     17804     17807
     17803     17801     17804     17805     17803     17801     17804     17806
     17803     17801     17804     17807     17804     17807     17810     17811
     17804     17807     17810     17812     17804     17807     17810     17813
     17805     17804     17807     17808     17805     17804     17807     17809
     17805     17804     17807     17810     17806     17804     17807     17808
     17806     17804     17807     17809     17806     17804     17807     17810
     17807     17810     17813     17814     17807     17810     17813     17815
     17808     17807     17810     17811     17808     17807     17810     17812
     17808     17807     17810     17813     17809     17807     17810     17811
     17809     17807     17810     17812     17809     17807     17810     17813
     17810     17813     17815     17816     17810     17813     17815     17817
     17811     17810     17813     17814     17811     17810     17813     17815
     17812     17810     17813     17814     17812     17810     17813     17815
     17813     17815     17817     17818     17813     17815     17817     17819
     17813     17815     17817     17820     17814     17813     17815     17816
     17814     17813     17815     17817     17815     17817     17820     17821
     17815     17817     17820     17822     17815     17817     17820     17823
     17816     17815     17817     17818     17816     17815     17817     17819
     17816     17815     17817     17820     17817     17820     17823     17824
     17817     17820     17823     17825     17817     17820     17823     17826
     17818     17817     17820     17821     17818     17817     17820     17822
     17818     17817     17820     17823     17819     17817     17820     17821
     17819     17817     17820     17822     17819     17817     17820     17823
     17820     17823     17826     17827     17820     17823     17826     17828
     17820     17823     17826     17829     17821     17820     17823     17824
     17821     17820     17823     17825     17821     17820     17823     17826
     17822     17820     17823     17824     17822     17820     17823     17825
     17822     17820     17823     17826     17823     17826     17829     17830
     17823     17826     17829     17831     17823     17826     17829     17832
     17824     17823     17826     17827     17824     17823     17826     17828
     17824     17823     17826     17829     17825     17823     17826     17827
     17825     17823     17826     17828     17825     17823     17826     17829
     17826     17829     17832     17833     17826     17829     17832     17834
     17826     17829     17832     17835     17827     17826     17829     17830
     17827     17826     17829     17831     17827     17826     17829     17832
     17828     17826     17829     17830     17828     17826     17829     17831
     17828     17826     17829     17832     17829     17832     17835     17836
     17829     17832     17835     17837     17829     17832     17835     17838
     17830     17829     17832     17833     17830     17829     17832     17834
     17830     17829     17832     17835     17831     17829     17832     17833
     17831     17829     17832     17834     17831     17829     17832     17835
     17832     17835     17838     17839     17832     17835     17838     17840
     17832     17835     17838     17841     17833     17832     17835     17836
     17833     17832     17835     17837     17833     17832     17835     17838
     17834     17832     17835     17836     17834     17832     17835     17837
     17834     17832     17835     17838     17836     17835     17838     17839
     17836     17835     17838     17840     17836     17835     17838     17841
     17837     17835     17838     17839     17837     17835     17838     17840
     17837     17835     17838     17841     17842     17845     17848     17849
     17842     17845     17848     17850     17842     17845     17848     17851
     17843     17842     17845     17846     17843     17842     17845     17847
     17843     17842     17845     17848     17844     17842     17845     17846
     17844     17842     17845     17847     17844     17842     17845     17848
     17845     17848     17851     17852     17845     17848     17851     17853
     17845     17848     17851     17854     17846     17845     17848     17849
     17846     17845     17848     17850     17846     17845     17848     17851
     17847     17845     17848     17849     17847     17845     17848     17850
     17847     17845     17848     17851     17848     17851     17854     17855
     17848     17851     17854     17856     17848     17851     17854     17857
     17849     17848     17851     17852     17849     17848     17851     17853
     17849     17848     17851     17854     17850     17848     17851     17852
     17850     17848     17851     17853     17850     17848     17851     17854
     17851     17854     17857     17858     17851     17854     17857     17859
     17851     17854     17857     17860     17852     17851     17854     17855
     17852     17851     17854     17856     17852     17851     17854     17857
     17853     17851     17854     17855     17853     17851     17854     17856
     17853     17851     17854     17857     17854     17857     17860     17861
     17854     17857     17860     17862     17855     17854     17857     17858
     17855     17854     17857     17859     17855     17854     17857     17860
     17856     17854     17857     17858     17856     17854     17857     17859
     17856     17854     17857     17860     17857     17860     17862     17863
     17857     17860     17862     17864     17858     17857     17860     17861
     17858     17857     17860     17862     17859     17857     17860     17861
     17859     17857     17860     17862     17860     17862     17864     17865
     17860     17862     17864     17866     17860     17862     17864     17867
     17861     17860     17862     17863     17861     17860     17862     17864
     17862     17864     17867     17868     17862     17864     17867     17869
     17862     17864     17867     17870     17863     17862     17864     17865
     17863     17862     17864     17866     17863     17862     17864     17867
     17864     17867     17870     17871     17864     17867     17870     17872
     17864     17867     17870     17873     17865     17864     17867     17868
     17865     17864     17867     17869     17865     17864     17867     17870
     17866     17864     17867     17868     17866     17864     17867     17869
     17866     17864     17867     17870     17867     17870     17873     17874
     17867     17870     17873     17875     17867     17870     17873     17876
     17868     17867     17870     17871     17868     17867     17870     17872
     17868     17867     17870     17873     17869     17867     17870     17871
     17869     17867     17870     17872     17869     17867     17870     17873
     17870     17873     17876     17877     17870     17873     17876     17878
     17870     17873     17876     17879     17871     17870     17873     17874
     17871     17870     17873     17875     17871     17870     17873     17876
     17872     17870     17873     17874     17872     17870     17873     17875
     17872     17870     17873     17876     17873     17876     17879     17880
     17873     17876     17879     17881     17873     17876     17879     17882
     17874     17873     17876     17877     17874     17873     17876     17878
     17874     17873     17876     17879     17875     17873     17876     17877
     17875     17873     17876     17878     17875     17873     17876     17879
     17876     17879     17882     17883     17876     17879     17882     17884
     17876     17879     17882     17885     17877     17876     17879     17880
     17877     17876     17879     17881     17877     17876     17879     17882
     17878     17876     17879     17880     17878     17876     17879     17881
     17878     17876     17879     17882     17879     17882     17885     17886
     17879     17882     17885     17887     17879     17882     17885     17888
     17880     17879     17882     17883     17880     17879     17882     17884
     17880     17879     17882     17885     17881     17879     17882     17883
     17881     17879     17882     17884     17881     17879     17882     17885
     17883     17882     17885     17886     17883     17882     17885     17887
     17883     17882     17885     17888     17884     17882     17885     17886
     17884     17882     17885     17887     17884     17882     17885     17888
     17889     17890     17905     17906     17889     17890     17905     17907
     17889     17890     17905     17911     17890     17889     17893     17894
     17890     17889     17893     17895     17890     17889     17893     17896
     17890     17889     17897     17898     17890     17889     17897     17899
     17890     17889     17897     17900     17890     17889     17901     17902
     17890     17889     17901     17903     17890     17889     17901     17904
     17890     17905     17911     17908     17891     17890     17889     17893
     17891     17890     17889     17897     17891     17890     17889     17901
     17891     17890     17905     17906     17891     17890     17905     17907
     17891     17890     17905     17911     17892     17890     17889     17893
     17892     17890     17889     17897     17892     17890     17889     17901
     17892     17890     17905     17906     17892     17890     17905     17907
     17892     17890     17905     17911     17893     17889     17890     17905
     17893     17889     17897     17898     17893     17889     17897     17899
     17893     17889     17897     17900     17893     17889     17901     17902
     17893     17889     17901     17903     17893     17889     17901     17904
     17894     17893     17889     17897     17894     17893     17889     17901
     17895     17893     17889     17897     17895     17893     17889     17901
     17896     17893     17889     17897     17896     17893     17889     17901
     17897     17889     17890     17905     17897     17889     17901     17902
     17897     17889     17901     17903     17897     17889     17901     17904
     17898     17897     17889     17901     17899     17897     17889     17901
     17900     17897     17889     17901     17901     17889     17890     17905
     17905     17911     17908     17909     17905     17911     17908     17910
     17905     17911     17908     17912     17906     17905     17911     17908
     17907     17905     17911     17908     17908     17912     17913     17914
     17908     17912     17913     17915     17908     17912     17913     17916
     17909     17908     17912     17913     17910     17908     17912     17913
     17911     17908     17912     17913     17912     17913     17916     17917
     17912     17913     17916     17918     17912     17913     17916     17924
     17913     17916     17918     17919     17913     17916     17924     17925
     17913     17916     17924     17926     17913     17916     17924     17927
     17914     17913     17916     17917     17914     17913     17916     17918
     17914     17913     17916     17924     17915     17913     17916     17917
     17915     17913     17916     17918     17915     17913     17916     17924
     17916     17918     17919     17920     17916     17918     17919     17921
     17916     17924     17927     17928     17917     17916     17918     17919
     17917     17916     17924     17925     17917     17916     17924     17926
     17917     17916     17924     17927     17918     17916     17924     17925
     17918     17916     17924     17926     17918     17916     17924     17927
     17918     17919     17921     17922     17918     17919     17921     17923
     17918     17919     17921     17933     17919     17918     17916     17924
     17919     17921     17933     17934     17919     17921     17933     17935
     17919     17921     17933     17936     17920     17919     17921     17922
     17920     17919     17921     17923     17920     17919     17921     17933
     17921     17933     17936     17937     17921     17933     17936     17938
     17921     17933     17936     17939     17922     17921     17933     17934
     17922     17921     17933     17935     17922     17921     17933     17936
     17923     17921     17933     17934     17923     17921     17933     17935
     17923     17921     17933     17936     17924     17927     17928     17929
     17924     17927     17928     17930     17925     17924     17927     17928
     17926     17924     17927     17928     17927     17928     17930     17931
     17927     17928     17930     17932     17927     17928     17930     17980
     17928     17930     17980     17981     17928     17930     17980     17982
     17928     17930     17980     17983     17929     17928     17930     17931
     17929     17928     17930     17932     17929     17928     17930     17980
     17930     17980     17983     17984     17930     17980     17983     17985
     17930     17980     17983     17986     17931     17930     17980     17981
     17931     17930     17980     17982     17931     17930     17980     17983
     17932     17930     17980     17981     17932     17930     17980     17982
     17932     17930     17980     17983     17933     17936     17939     17940
     17933     17936     17939     17941     17933     17936     17939     17942
     17934     17933     17936     17937     17934     17933     17936     17938
     17934     17933     17936     17939     17935     17933     17936     17937
     17935     17933     17936     17938     17935     17933     17936     17939
     17936     17939     17942     17943     17936     17939     17942     17944
     17936     17939     17942     17945     17937     17936     17939     17940
     17937     17936     17939     17941     17937     17936     17939     17942
     17938     17936     17939     17940     17938     17936     17939     17941
     17938     17936     17939     17942     17939     17942     17945     17946
     17939     17942     17945     17947     17939     17942     17945     17948
     17940     17939     17942     17943     17940     17939     17942     17944
     17940     17939     17942     17945     17941     17939     17942     17943
     17941     17939     17942     17944     17941     17939     17942     17945
     17942     17945     17948     17949     17942     17945     17948     17950
     17942     17945     17948     17951     17943     17942     17945     17946
     17943     17942     17945     17947     17943     17942     17945     17948
     17944     17942     17945     17946     17944     17942     17945     17947
     17944     17942     17945     17948     17945     17948     17951     17952
     17945     17948     17951     17953     17946     17945     17948     17949
     17946     17945     17948     17950     17946     17945     17948     17951
     17947     17945     17948     17949     17947     17945     17948     17950
     17947     17945     17948     17951     17948     17951     17953     17954
     17948     17951     17953     17955     17949     17948     17951     17952
     17949     17948     17951     17953     17950     17948     17951     17952
     17950     17948     17951     17953     17951     17953     17955     17956
     17951     17953     17955     17957     17951     17953     17955     17958
     17952     17951     17953     17954     17952     17951     17953     17955
     17953     17955     17958     17959     17953     17955     17958     17960
     17953     17955     17958     17961     17954     17953     17955     17956
     17954     17953     17955     17957     17954     17953     17955     17958
     17955     17958     17961     17962     17955     17958     17961     17963
     17955     17958     17961     17964     17956     17955     17958     17959
     17956     17955     17958     17960     17956     17955     17958     17961
     17957     17955     17958     17959     17957     17955     17958     17960
     17957     17955     17958     17961     17958     17961     17964     17965
     17958     17961     17964     17966     17958     17961     17964     17967
     17959     17958     17961     17962     17959     17958     17961     17963
     17959     17958     17961     17964     17960     17958     17961     17962
     17960     17958     17961     17963     17960     17958     17961     17964
     17961     17964     17967     17968     17961     17964     17967     17969
     17961     17964     17967     17970     17962     17961     17964     17965
     17962     17961     17964     17966     17962     17961     17964     17967
     17963     17961     17964     17965     17963     17961     17964     17966
     17963     17961     17964     17967     17964     17967     17970     17971
     17964     17967     17970     17972     17964     17967     17970     17973
     17965     17964     17967     17968     17965     17964     17967     17969
     17965     17964     17967     17970     17966     17964     17967     17968
     17966     17964     17967     17969     17966     17964     17967     17970
     17967     17970     17973     17974     17967     17970     17973     17975
     17967     17970     17973     17976     17968     17967     17970     17971
     17968     17967     17970     17972     17968     17967     17970     17973
     17969     17967     17970     17971     17969     17967     17970     17972
     17969     17967     17970     17973     17970     17973     17976     17977
     17970     17973     17976     17978     17970     17973     17976     17979
     17971     17970     17973     17974     17971     17970     17973     17975
     17971     17970     17973     17976     17972     17970     17973     17974
     17972     17970     17973     17975     17972     17970     17973     17976
     17974     17973     17976     17977     17974     17973     17976     17978
     17974     17973     17976     17979     17975     17973     17976     17977
     17975     17973     17976     17978     17975     17973     17976     17979
     17980     17983     17986     17987     17980     17983     17986     17988
     17980     17983     17986     17989     17981     17980     17983     17984
     17981     17980     17983     17985     17981     17980     17983     17986
     17982     17980     17983     17984     17982     17980     17983     17985
     17982     17980     17983     17986     17983     17986     17989     17990
     17983     17986     17989     17991     17983     17986     17989     17992
     17984     17983     17986     17987     17984     17983     17986     17988
     17984     17983     17986     17989     17985     17983     17986     17987
     17985     17983     17986     17988     17985     17983     17986     17989
     17986     17989     17992     17993     17986     17989     17992     17994
     17986     17989     17992     17995     17987     17986     17989     17990
     17987     17986     17989     17991     17987     17986     17989     17992
     17988     17986     17989     17990     17988     17986     17989     17991
     17988     17986     17989     17992     17989     17992     17995     17996
     17989     17992     17995     17997     17989     17992     17995     17998
     17990     17989     17992     17993     17990     17989     17992     17994
     17990     17989     17992     17995     17991     17989     17992     17993
     17991     17989     17992     17994     17991     17989     17992     17995
     17992     17995     17998     17999     17992     17995     17998     18000
     17993     17992     17995     17996     17993     17992     17995     17997
     17993     17992     17995     17998     17994     17992     17995     17996
     17994     17992     17995     17997     17994     17992     17995     17998
     17995     17998     18000     18001     17995     17998     18000     18002
     17996     17995     17998     17999     17996     17995     17998     18000
     17997     17995     17998     17999     17997     17995     17998     18000
     17998     18000     18002     18003     17998     18000     18002     18004
     17998     18000     18002     18005     17999     17998     18000     18001
     17999     17998     18000     18002     18000     18002     18005     18006
     18000     18002     18005     18007     18000     18002     18005     18008
     18001     18000     18002     18003     18001     18000     18002     18004
     18001     18000     18002     18005     18002     18005     18008     18009
     18002     18005     18008     18010     18002     18005     18008     18011
     18003     18002     18005     18006     18003     18002     18005     18007
     18003     18002     18005     18008     18004     18002     18005     18006
     18004     18002     18005     18007     18004     18002     18005     18008
     18005     18008     18011     18012     18005     18008     18011     18013
     18005     18008     18011     18014     18006     18005     18008     18009
     18006     18005     18008     18010     18006     18005     18008     18011
     18007     18005     18008     18009     18007     18005     18008     18010
     18007     18005     18008     18011     18008     18011     18014     18015
     18008     18011     18014     18016     18008     18011     18014     18017
     18009     18008     18011     18012     18009     18008     18011     18013
     18009     18008     18011     18014     18010     18008     18011     18012
     18010     18008     18011     18013     18010     18008     18011     18014
     18011     18014     18017     18018     18011     18014     18017     18019
     18011     18014     18017     18020     18012     18011     18014     18015
     18012     18011     18014     18016     18012     18011     18014     18017
     18013     18011     18014     18015     18013     18011     18014     18016
     18013     18011     18014     18017     18014     18017     18020     18021
     18014     18017     18020     18022     18014     18017     18020     18023
     18015     18014     18017     18018     18015     18014     18017     18019
     18015     18014     18017     18020     18016     18014     18017     18018
     18016     18014     18017     18019     18016     18014     18017     18020
     18017     18020     18023     18024     18017     18020     18023     18025
     18017     18020     18023     18026     18018     18017     18020     18021
     18018     18017     18020     18022     18018     18017     18020     18023
     18019     18017     18020     18021     18019     18017     18020     18022
     18019     18017     18020     18023     18021     18020     18023     18024
     18021     18020     18023     18025     18021     18020     18023     18026
     18022     18020     18023     18024     18022     18020     18023     18025
     18022     18020     18023     18026     18027     18028     18043     18044
     18027     18028     18043     18045     18027     18028     18043     18049
     18028     18027     18031     18032     18028     18027     18031     18033
     18028     18027     18031     18034     18028     18027     18035     18036
     18028     18027     18035     18037     18028     18027     18035     18038
     18028     18027     18039     18040     18028     18027     18039     18041
     18028     18027     18039     18042     18028     18043     18049     18046
     18029     18028     18027     18031     18029     18028     18027     18035
     18029     18028     18027     18039     18029     18028     18043     18044
     18029     18028     18043     18045     18029     18028     18043     18049
     18030     18028     18027     18031     18030     18028     18027     18035
     18030     18028     18027     18039     18030     18028     18043     18044
     18030     18028     18043     18045     18030     18028     18043     18049
     18031     18027     18028     18043     18031     18027     18035     18036
     18031     18027     18035     18037     18031     18027     18035     18038
     18031     18027     18039     18040     18031     18027     18039     18041
     18031     18027     18039     18042     18032     18031     18027     18035
     18032     18031     18027     18039     18033     18031     18027     18035
     18033     18031     18027     18039     18034     18031     18027     18035
     18034     18031     18027     18039     18035     18027     18028     18043
     18035     18027     18039     18040     18035     18027     18039     18041
     18035     18027     18039     18042     18036     18035     18027     18039
     18037     18035     18027     18039     18038     18035     18027     18039
     18039     18027     18028     18043     18043     18049     18046     18047
     18043     18049     18046     18048     18043     18049     18046     18050
     18044     18043     18049     18046     18045     18043     18049     18046
     18046     18050     18051     18052     18046     18050     18051     18053
     18046     18050     18051     18054     18047     18046     18050     18051
     18048     18046     18050     18051     18049     18046     18050     18051
     18050     18051     18054     18055     18050     18051     18054     18056
     18050     18051     18054     18062     18051     18054     18056     18057
     18051     18054     18062     18063     18051     18054     18062     18064
     18051     18054     18062     18065     18052     18051     18054     18055
     18052     18051     18054     18056     18052     18051     18054     18062
     18053     18051     18054     18055     18053     18051     18054     18056
     18053     18051     18054     18062     18054     18056     18057     18058
     18054     18056     18057     18059     18054     18062     18065     18066
     18055     18054     18056     18057     18055     18054     18062     18063
     18055     18054     18062     18064     18055     18054     18062     18065
     18056     18054     18062     18063     18056     18054     18062     18064
     18056     18054     18062     18065     18056     18057     18059     18060
     18056     18057     18059     18061     18056     18057     18059     18071
     18057     18056     18054     18062     18057     18059     18071     18072
     18057     18059     18071     18073     18057     18059     18071     18074
     18058     18057     18059     18060     18058     18057     18059     18061
     18058     18057     18059     18071     18059     18071     18074     18075
     18059     18071     18074     18076     18059     18071     18074     18077
     18060     18059     18071     18072     18060     18059     18071     18073
     18060     18059     18071     18074     18061     18059     18071     18072
     18061     18059     18071     18073     18061     18059     18071     18074
     18062     18065     18066     18067     18062     18065     18066     18068
     18063     18062     18065     18066     18064     18062     18065     18066
     18065     18066     18068     18069     18065     18066     18068     18070
     18065     18066     18068     18118     18066     18068     18118     18119
     18066     18068     18118     18120     18066     18068     18118     18121
     18067     18066     18068     18069     18067     18066     18068     18070
     18067     18066     18068     18118     18068     18118     18121     18122
     18068     18118     18121     18123     18068     18118     18121     18124
     18069     18068     18118     18119     18069     18068     18118     18120
     18069     18068     18118     18121     18070     18068     18118     18119
     18070     18068     18118     18120     18070     18068     18118     18121
     18071     18074     18077     18078     18071     18074     18077     18079
     18071     18074     18077     18080     18072     18071     18074     18075
     18072     18071     18074     18076     18072     18071     18074     18077
     18073     18071     18074     18075     18073     18071     18074     18076
     18073     18071     18074     18077     18074     18077     18080     18081
     18074     18077     18080     18082     18074     18077     18080     18083
     18075     18074     18077     18078     18075     18074     18077     18079
     18075     18074     18077     18080     18076     18074     18077     18078
     18076     18074     18077     18079     18076     18074     18077     18080
     18077     18080     18083     18084     18077     18080     18083     18085
     18077     18080     18083     18086     18078     18077     18080     18081
     18078     18077     18080     18082     18078     18077     18080     18083
     18079     18077     18080     18081     18079     18077     18080     18082
     18079     18077     18080     18083     18080     18083     18086     18087
     18080     18083     18086     18088     18080     18083     18086     18089
     18081     18080     18083     18084     18081     18080     18083     18085
     18081     18080     18083     18086     18082     18080     18083     18084
     18082     18080     18083     18085     18082     18080     18083     18086
     18083     18086     18089     18090     18083     18086     18089     18091
     18084     18083     18086     18087     18084     18083     18086     18088
     18084     18083     18086     18089     18085     18083     18086     18087
     18085     18083     18086     18088     18085     18083     18086     18089
     18086     18089     18091     18092     18086     18089     18091     18093
     18087     18086     18089     18090     18087     18086     18089     18091
     18088     18086     18089     18090     18088     18086     18089     18091
     18089     18091     18093     18094     18089     18091     18093     18095
     18089     18091     18093     18096     18090     18089     18091     18092
     18090     18089     18091     18093     18091     18093     18096     18097
     18091     18093     18096     18098     18091     18093     18096     18099
     18092     18091     18093     18094     18092     18091     18093     18095
     18092     18091     18093     18096     18093     18096     18099     18100
     18093     18096     18099     18101     18093     18096     18099     18102
     18094     18093     18096     18097     18094     18093     18096     18098
     18094     18093     18096     18099     18095     18093     18096     18097
     18095     18093     18096     18098     18095     18093     18096     18099
     18096     18099     18102     18103     18096     18099     18102     18104
     18096     18099     18102     18105     18097     18096     18099     18100
     18097     18096     18099     18101     18097     18096     18099     18102
     18098     18096     18099     18100     18098     18096     18099     18101
     18098     18096     18099     18102     18099     18102     18105     18106
     18099     18102     18105     18107     18099     18102     18105     18108
     18100     18099     18102     18103     18100     18099     18102     18104
     18100     18099     18102     18105     18101     18099     18102     18103
     18101     18099     18102     18104     18101     18099     18102     18105
     18102     18105     18108     18109     18102     18105     18108     18110
     18102     18105     18108     18111     18103     18102     18105     18106
     18103     18102     18105     18107     18103     18102     18105     18108
     18104     18102     18105     18106     18104     18102     18105     18107
     18104     18102     18105     18108     18105     18108     18111     18112
     18105     18108     18111     18113     18105     18108     18111     18114
     18106     18105     18108     18109     18106     18105     18108     18110
     18106     18105     18108     18111     18107     18105     18108     18109
     18107     18105     18108     18110     18107     18105     18108     18111
     18108     18111     18114     18115     18108     18111     18114     18116
     18108     18111     18114     18117     18109     18108     18111     18112
     18109     18108     18111     18113     18109     18108     18111     18114
     18110     18108     18111     18112     18110     18108     18111     18113
     18110     18108     18111     18114     18112     18111     18114     18115
     18112     18111     18114     18116     18112     18111     18114     18117
     18113     18111     18114     18115     18113     18111     18114     18116
     18113     18111     18114     18117     18118     18121     18124     18125
     18118     18121     18124     18126     18118     18121     18124     18127
     18119     18118     18121     18122     18119     18118     18121     18123
     18119     18118     18121     18124     18120     18118     18121     18122
     18120     18118     18121     18123     18120     18118     18121     18124
     18121     18124     18127     18128     18121     18124     18127     18129
     18121     18124     18127     18130     18122     18121     18124     18125
     18122     18121     18124     18126     18122     18121     18124     18127
     18123     18121     18124     18125     18123     18121     18124     18126
     18123     18121     18124     18127     18124     18127     18130     18131
     18124     18127     18130     18132     18124     18127     18130     18133
     18125     18124     18127     18128     18125     18124     18127     18129
     18125     18124     18127     18130     18126     18124     18127     18128
     18126     18124     18127     18129     18126     18124     18127     18130
     18127     18130     18133     18134     18127     18130     18133     18135
     18127     18130     18133     18136     18128     18127     18130     18131
     18128     18127     18130     18132     18128     18127     18130     18133
     18129     18127     18130     18131     18129     18127     18130     18132
     18129     18127     18130     18133     18130     18133     18136     18137
     18130     18133     18136     18138     18131     18130     18133     18134
     18131     18130     18133     18135     18131     18130     18133     18136
     18132     18130     18133     18134     18132     18130     18133     18135
     18132     18130     18133     18136     18133     18136     18138     18139
     18133     18136     18138     18140     18134     18133     18136     18137
     18134     18133     18136     18138     18135     18133     18136     18137
     18135     18133     18136     18138     18136     18138     18140     18141
     18136     18138     18140     18142     18136     18138     18140     18143
     18137     18136     18138     18139     18137     18136     18138     18140
     18138     18140     18143     18144     18138     18140     18143     18145
     18138     18140     18143     18146     18139     18138     18140     18141
     18139     18138     18140     18142     18139     18138     18140     18143
     18140     18143     18146     18147     18140     18143     18146     18148
     18140     18143     18146     18149     18141     18140     18143     18144
     18141     18140     18143     18145     18141     18140     18143     18146
     18142     18140     18143     18144     18142     18140     18143     18145
     18142     18140     18143     18146     18143     18146     18149     18150
     18143     18146     18149     18151     18143     18146     18149     18152
     18144     18143     18146     18147     18144     18143     18146     18148
     18144     18143     18146     18149     18145     18143     18146     18147
     18145     18143     18146     18148     18145     18143     18146     18149
     18146     18149     18152     18153     18146     18149     18152     18154
     18146     18149     18152     18155     18147     18146     18149     18150
     18147     18146     18149     18151     18147     18146     18149     18152
     18148     18146     18149     18150     18148     18146     18149     18151
     18148     18146     18149     18152     18149     18152     18155     18156
     18149     18152     18155     18157     18149     18152     18155     18158
     18150     18149     18152     18153     18150     18149     18152     18154
     18150     18149     18152     18155     18151     18149     18152     18153
     18151     18149     18152     18154     18151     18149     18152     18155
     18152     18155     18158     18159     18152     18155     18158     18160
     18152     18155     18158     18161     18153     18152     18155     18156
     18153     18152     18155     18157     18153     18152     18155     18158
     18154     18152     18155     18156     18154     18152     18155     18157
     18154     18152     18155     18158     18155     18158     18161     18162
     18155     18158     18161     18163     18155     18158     18161     18164
     18156     18155     18158     18159     18156     18155     18158     18160
     18156     18155     18158     18161     18157     18155     18158     18159
     18157     18155     18158     18160     18157     18155     18158     18161
     18159     18158     18161     18162     18159     18158     18161     18163
     18159     18158     18161     18164     18160     18158     18161     18162
     18160     18158     18161     18163     18160     18158     18161     18164
     18165     18166     18181     18182     18165     18166     18181     18183
     18165     18166     18181     18187     18166     18165     18169     18170
     18166     18165     18169     18171     18166     18165     18169     18172
     18166     18165     18173     18174     18166     18165     18173     18175
     18166     18165     18173     18176     18166     18165     18177     18178
     18166     18165     18177     18179     18166     18165     18177     18180
     18166     18181     18187     18184     18167     18166     18165     18169
     18167     18166     18165     18173     18167     18166     18165     18177
     18167     18166     18181     18182     18167     18166     18181     18183
     18167     18166     18181     18187     18168     18166     18165     18169
     18168     18166     18165     18173     18168     18166     18165     18177
     18168     18166     18181     18182     18168     18166     18181     18183
     18168     18166     18181     18187     18169     18165     18166     18181
     18169     18165     18173     18174     18169     18165     18173     18175
     18169     18165     18173     18176     18169     18165     18177     18178
     18169     18165     18177     18179     18169     18165     18177     18180
     18170     18169     18165     18173     18170     18169     18165     18177
     18171     18169     18165     18173     18171     18169     18165     18177
     18172     18169     18165     18173     18172     18169     18165     18177
     18173     18165     18166     18181     18173     18165     18177     18178
     18173     18165     18177     18179     18173     18165     18177     18180
     18174     18173     18165     18177     18175     18173     18165     18177
     18176     18173     18165     18177     18177     18165     18166     18181
     18181     18187     18184     18185     18181     18187     18184     18186
     18181     18187     18184     18188     18182     18181     18187     18184
     18183     18181     18187     18184     18184     18188     18189     18190
     18184     18188     18189     18191     18184     18188     18189     18192
     18185     18184     18188     18189     18186     18184     18188     18189
     18187     18184     18188     18189     18188     18189     18192     18193
     18188     18189     18192     18194     18188     18189     18192     18200
     18189     18192     18194     18195     18189     18192     18200     18201
     18189     18192     18200     18202     18189     18192     18200     18203
     18190     18189     18192     18193     18190     18189     18192     18194
     18190     18189     18192     18200     18191     18189     18192     18193
     18191     18189     18192     18194     18191     18189     18192     18200
     18192     18194     18195     18196     18192     18194     18195     18197
     18192     18200     18203     18204     18193     18192     18194     18195
     18193     18192     18200     18201     18193     18192     18200     18202
     18193     18192     18200     18203     18194     18192     18200     18201
     18194     18192     18200     18202     18194     18192     18200     18203
     18194     18195     18197     18198     18194     18195     18197     18199
     18194     18195     18197     18209     18195     18194     18192     18200
     18195     18197     18209     18210     18195     18197     18209     18211
     18195     18197     18209     18212     18196     18195     18197     18198
     18196     18195     18197     18199     18196     18195     18197     18209
     18197     18209     18212     18213     18197     18209     18212     18214
     18197     18209     18212     18215     18198     18197     18209     18210
     18198     18197     18209     18211     18198     18197     18209     18212
     18199     18197     18209     18210     18199     18197     18209     18211
     18199     18197     18209     18212     18200     18203     18204     18205
     18200     18203     18204     18206     18201     18200     18203     18204
     18202     18200     18203     18204     18203     18204     18206     18207
     18203     18204     18206     18208     18203     18204     18206     18256
     18204     18206     18256     18257     18204     18206     18256     18258
     18204     18206     18256     18259     18205     18204     18206     18207
     18205     18204     18206     18208     18205     18204     18206     18256
     18206     18256     18259     18260     18206     18256     18259     18261
     18206     18256     18259     18262     18207     18206     18256     18257
     18207     18206     18256     18258     18207     18206     18256     18259
     18208     18206     18256     18257     18208     18206     18256     18258
     18208     18206     18256     18259     18209     18212     18215     18216
     18209     18212     18215     18217     18209     18212     18215     18218
     18210     18209     18212     18213     18210     18209     18212     18214
     18210     18209     18212     18215     18211     18209     18212     18213
     18211     18209     18212     18214     18211     18209     18212     18215
     18212     18215     18218     18219     18212     18215     18218     18220
     18212     18215     18218     18221     18213     18212     18215     18216
     18213     18212     18215     18217     18213     18212     18215     18218
     18214     18212     18215     18216     18214     18212     18215     18217
     18214     18212     18215     18218     18215     18218     18221     18222
     18215     18218     18221     18223     18215     18218     18221     18224
     18216     18215     18218     18219     18216     18215     18218     18220
     18216     18215     18218     18221     18217     18215     18218     18219
     18217     18215     18218     18220     18217     18215     18218     18221
     18218     18221     18224     18225     18218     18221     18224     18226
     18218     18221     18224     18227     18219     18218     18221     18222
     18219     18218     18221     18223     18219     18218     18221     18224
     18220     18218     18221     18222     18220     18218     18221     18223
     18220     18218     18221     18224     18221     18224     18227     18228
     18221     18224     18227     18229     18222     18221     18224     18225
     18222     18221     18224     18226     18222     18221     18224     18227
     18223     18221     18224     18225     18223     18221     18224     18226
     18223     18221     18224     18227     18224     18227     18229     18230
     18224     18227     18229     18231     18225     18224     18227     18228
     18225     18224     18227     18229     18226     18224     18227     18228
     18226     18224     18227     18229     18227     18229     18231     18232
     18227     18229     18231     18233     18227     18229     18231     18234
     18228     18227     18229     18230     18228     18227     18229     18231
     18229     18231     18234     18235     18229     18231     18234     18236
     18229     18231     18234     18237     18230     18229     18231     18232
     18230     18229     18231     18233     18230     18229     18231     18234
     18231     18234     18237     18238     18231     18234     18237     18239
     18231     18234     18237     18240     18232     18231     18234     18235
     18232     18231     18234     18236     18232     18231     18234     18237
     18233     18231     18234     18235     18233     18231     18234     18236
     18233     18231     18234     18237     18234     18237     18240     18241
     18234     18237     18240     18242     18234     18237     18240     18243
     18235     18234     18237     18238     18235     18234     18237     18239
     18235     18234     18237     18240     18236     18234     18237     18238
     18236     18234     18237     18239     18236     18234     18237     18240
     18237     18240     18243     18244     18237     18240     18243     18245
     18237     18240     18243     18246     18238     18237     18240     18241
     18238     18237     18240     18242     18238     18237     18240     18243
     18239     18237     18240     18241     18239     18237     18240     18242
     18239     18237     18240     18243     18240     18243     18246     18247
     18240     18243     18246     18248     18240     18243     18246     18249
     18241     18240     18243     18244     18241     18240     18243     18245
     18241     18240     18243     18246     18242     18240     18243     18244
     18242     18240     18243     18245     18242     18240     18243     18246
     18243     18246     18249     18250     18243     18246     18249     18251
     18243     18246     18249     18252     18244     18243     18246     18247
     18244     18243     18246     18248     18244     18243     18246     18249
     18245     18243     18246     18247     18245     18243     18246     18248
     18245     18243     18246     18249     18246     18249     18252     18253
     18246     18249     18252     18254     18246     18249     18252     18255
     18247     18246     18249     18250     18247     18246     18249     18251
     18247     18246     18249     18252     18248     18246     18249     18250
     18248     18246     18249     18251     18248     18246     18249     18252
     18250     18249     18252     18253     18250     18249     18252     18254
     18250     18249     18252     18255     18251     18249     18252     18253
     18251     18249     18252     18254     18251     18249     18252     18255
     18256     18259     18262     18263     18256     18259     18262     18264
     18256     18259     18262     18265     18257     18256     18259     18260
     18257     18256     18259     18261     18257     18256     18259     18262
     18258     18256     18259     18260     18258     18256     18259     18261
     18258     18256     18259     18262     18259     18262     18265     18266
     18259     18262     18265     18267     18259     18262     18265     18268
     18260     18259     18262     18263     18260     18259     18262     18264
     18260     18259     18262     18265     18261     18259     18262     18263
     18261     18259     18262     18264     18261     18259     18262     18265
     18262     18265     18268     18269     18262     18265     18268     18270
     18262     18265     18268     18271     18263     18262     18265     18266
     18263     18262     18265     18267     18263     18262     18265     18268
     18264     18262     18265     18266     18264     18262     18265     18267
     18264     18262     18265     18268     18265     18268     18271     18272
     18265     18268     18271     18273     18265     18268     18271     18274
     18266     18265     18268     18269     18266     18265     18268     18270
     18266     18265     18268     18271     18267     18265     18268     18269
     18267     18265     18268     18270     18267     18265     18268     18271
     18268     18271     18274     18275     18268     18271     18274     18276
     18269     18268     18271     18272     18269     18268     18271     18273
     18269     18268     18271     18274     18270     18268     18271     18272
     18270     18268     18271     18273     18270     18268     18271     18274
     18271     18274     18276     18277     18271     18274     18276     18278
     18272     18271     18274     18275     18272     18271     18274     18276
     18273     18271     18274     18275     18273     18271     18274     18276
     18274     18276     18278     18279     18274     18276     18278     18280
     18274     18276     18278     18281     18275     18274     18276     18277
     18275     18274     18276     18278     18276     18278     18281     18282
     18276     18278     18281     18283     18276     18278     18281     18284
     18277     18276     18278     18279     18277     18276     18278     18280
     18277     18276     18278     18281     18278     18281     18284     18285
     18278     18281     18284     18286     18278     18281     18284     18287
     18279     18278     18281     18282     18279     18278     18281     18283
     18279     18278     18281     18284     18280     18278     18281     18282
     18280     18278     18281     18283     18280     18278     18281     18284
     18281     18284     18287     18288     18281     18284     18287     18289
     18281     18284     18287     18290     18282     18281     18284     18285
     18282     18281     18284     18286     18282     18281     18284     18287
     18283     18281     18284     18285     18283     18281     18284     18286
     18283     18281     18284     18287     18284     18287     18290     18291
     18284     18287     18290     18292     18284     18287     18290     18293
     18285     18284     18287     18288     18285     18284     18287     18289
     18285     18284     18287     18290     18286     18284     18287     18288
     18286     18284     18287     18289     18286     18284     18287     18290
     18287     18290     18293     18294     18287     18290     18293     18295
     18287     18290     18293     18296     18288     18287     18290     18291
     18288     18287     18290     18292     18288     18287     18290     18293
     18289     18287     18290     18291     18289     18287     18290     18292
     18289     18287     18290     18293     18290     18293     18296     18297
     18290     18293     18296     18298     18290     18293     18296     18299
     18291     18290     18293     18294     18291     18290     18293     18295
     18291     18290     18293     18296     18292     18290     18293     18294
     18292     18290     18293     18295     18292     18290     18293     18296
     18293     18296     18299     18300     18293     18296     18299     18301
     18293     18296     18299     18302     18294     18293     18296     18297
     18294     18293     18296     18298     18294     18293     18296     18299
     18295     18293     18296     18297     18295     18293     18296     18298
     18295     18293     18296     18299     18297     18296     18299     18300
     18297     18296     18299     18301     18297     18296     18299     18302
     18298     18296     18299     18300     18298     18296     18299     18301
     18298     18296     18299     18302     18303     18304     18319     18320
     18303     18304     18319     18321     18303     18304     18319     18325
     18304     18303     18307     18308     18304     18303     18307     18309
     18304     18303     18307     18310     18304     18303     18311     18312
     18304     18303     18311     18313     18304     18303     18311     18314
     18304     18303     18315     18316     18304     18303     18315     18317
     18304     18303     18315     18318     18304     18319     18325     18322
     18305     18304     18303     18307     18305     18304     18303     18311
     18305     18304     18303     18315     18305     18304     18319     18320
     18305     18304     18319     18321     18305     18304     18319     18325
     18306     18304     18303     18307     18306     18304     18303     18311
     18306     18304     18303     18315     18306     18304     18319     18320
     18306     18304     18319     18321     18306     18304     18319     18325
     18307     18303     18304     18319     18307     18303     18311     18312
     18307     18303     18311     18313     18307     18303     18311     18314
     18307     18303     18315     18316     18307     18303     18315     18317
     18307     18303     18315     18318     18308     18307     18303     18311
     18308     18307     18303     18315     18309     18307     18303     18311
     18309     18307     18303     18315     18310     18307     18303     18311
     18310     18307     18303     18315     18311     18303     18304     18319
     18311     18303     18315     18316     18311     18303     18315     18317
     18311     18303     18315     18318     18312     18311     18303     18315
     18313     18311     18303     18315     18314     18311     18303     18315
     18315     18303     18304     18319     18319     18325     18322     18323
     18319     18325     18322     18324     18319     18325     18322     18326
     18320     18319     18325     18322     18321     18319     18325     18322
     18322     18326     18327     18328     18322     18326     18327     18329
     18322     18326     18327     18330     18323     18322     18326     18327
     18324     18322     18326     18327     18325     18322     18326     18327
     18326     18327     18330     18331     18326     18327     18330     18332
     18326     18327     18330     18338     18327     18330     18332     18333
     18327     18330     18338     18339     18327     18330     18338     18340
     18327     18330     18338     18341     18328     18327     18330     18331
     18328     18327     18330     18332     18328     18327     18330     18338
     18329     18327     18330     18331     18329     18327     18330     18332
     18329     18327     18330     18338     18330     18332     18333     18334
     18330     18332     18333     18335     18330     18338     18341     18342
     18331     18330     18332     18333     18331     18330     18338     18339
     18331     18330     18338     18340     18331     18330     18338     18341
     18332     18330     18338     18339     18332     18330     18338     18340
     18332     18330     18338     18341     18332     18333     18335     18336
     18332     18333     18335     18337     18332     18333     18335     18347
     18333     18332     18330     18338     18333     18335     18347     18348
     18333     18335     18347     18349     18333     18335     18347     18350
     18334     18333     18335     18336     18334     18333     18335     18337
     18334     18333     18335     18347     18335     18347     18350     18351
     18335     18347     18350     18352     18335     18347     18350     18353
     18336     18335     18347     18348     18336     18335     18347     18349
     18336     18335     18347     18350     18337     18335     18347     18348
     18337     18335     18347     18349     18337     18335     18347     18350
     18338     18341     18342     18343     18338     18341     18342     18344
     18339     18338     18341     18342     18340     18338     18341     18342
     18341     18342     18344     18345     18341     18342     18344     18346
     18341     18342     18344     18394     18342     18344     18394     18395
     18342     18344     18394     18396     18342     18344     18394     18397
     18343     18342     18344     18345     18343     18342     18344     18346
     18343     18342     18344     18394     18344     18394     18397     18398
     18344     18394     18397     18399     18344     18394     18397     18400
     18345     18344     18394     18395     18345     18344     18394     18396
     18345     18344     18394     18397     18346     18344     18394     18395
     18346     18344     18394     18396     18346     18344     18394     18397
     18347     18350     18353     18354     18347     18350     18353     18355
     18347     18350     18353     18356     18348     18347     18350     18351
     18348     18347     18350     18352     18348     18347     18350     18353
     18349     18347     18350     18351     18349     18347     18350     18352
     18349     18347     18350     18353     18350     18353     18356     18357
     18350     18353     18356     18358     18350     18353     18356     18359
     18351     18350     18353     18354     18351     18350     18353     18355
     18351     18350     18353     18356     18352     18350     18353     18354
     18352     18350     18353     18355     18352     18350     18353     18356
     18353     18356     18359     18360     18353     18356     18359     18361
     18353     18356     18359     18362     18354     18353     18356     18357
     18354     18353     18356     18358     18354     18353     18356     18359
     18355     18353     18356     18357     18355     18353     18356     18358
     18355     18353     18356     18359     18356     18359     18362     18363
     18356     18359     18362     18364     18356     18359     18362     18365
     18357     18356     18359     18360     18357     18356     18359     18361
     18357     18356     18359     18362     18358     18356     18359     18360
     18358     18356     18359     18361     18358     18356     18359     18362
     18359     18362     18365     18366     18359     18362     18365     18367
     18360     18359     18362     18363     18360     18359     18362     18364
     18360     18359     18362     18365     18361     18359     18362     18363
     18361     18359     18362     18364     18361     18359     18362     18365
     18362     18365     18367     18368     18362     18365     18367     18369
     18363     18362     18365     18366     18363     18362     18365     18367
     18364     18362     18365     18366     18364     18362     18365     18367
     18365     18367     18369     18370     18365     18367     18369     18371
     18365     18367     18369     18372     18366     18365     18367     18368
     18366     18365     18367     18369     18367     18369     18372     18373
     18367     18369     18372     18374     18367     18369     18372     18375
     18368     18367     18369     18370     18368     18367     18369     18371
     18368     18367     18369     18372     18369     18372     18375     18376
     18369     18372     18375     18377     18369     18372     18375     18378
     18370     18369     18372     18373     18370     18369     18372     18374
     18370     18369     18372     18375     18371     18369     18372     18373
     18371     18369     18372     18374     18371     18369     18372     18375
     18372     18375     18378     18379     18372     18375     18378     18380
     18372     18375     18378     18381     18373     18372     18375     18376
     18373     18372     18375     18377     18373     18372     18375     18378
     18374     18372     18375     18376     18374     18372     18375     18377
     18374     18372     18375     18378     18375     18378     18381     18382
     18375     18378     18381     18383     18375     18378     18381     18384
     18376     18375     18378     18379     18376     18375     18378     18380
     18376     18375     18378     18381     18377     18375     18378     18379
     18377     18375     18378     18380     18377     18375     18378     18381
     18378     18381     18384     18385     18378     18381     18384     18386
     18378     18381     18384     18387     18379     18378     18381     18382
     18379     18378     18381     18383     18379     18378     18381     18384
     18380     18378     18381     18382     18380     18378     18381     18383
     18380     18378     18381     18384     18381     18384     18387     18388
     18381     18384     18387     18389     18381     18384     18387     18390
     18382     18381     18384     18385     18382     18381     18384     18386
     18382     18381     18384     18387     18383     18381     18384     18385
     18383     18381     18384     18386     18383     18381     18384     18387
     18384     18387     18390     18391     18384     18387     18390     18392
     18384     18387     18390     18393     18385     18384     18387     18388
     18385     18384     18387     18389     18385     18384     18387     18390
     18386     18384     18387     18388     18386     18384     18387     18389
     18386     18384     18387     18390     18388     18387     18390     18391
     18388     18387     18390     18392     18388     18387     18390     18393
     18389     18387     18390     18391     18389     18387     18390     18392
     18389     18387     18390     18393     18394     18397     18400     18401
     18394     18397     18400     18402     18394     18397     18400     18403
     18395     18394     18397     18398     18395     18394     18397     18399
     18395     18394     18397     18400     18396     18394     18397     18398
     18396     18394     18397     18399     18396     18394     18397     18400
     18397     18400     18403     18404     18397     18400     18403     18405
     18397     18400     18403     18406     18398     18397     18400     18401
     18398     18397     18400     18402     18398     18397     18400     18403
     18399     18397     18400     18401     18399     18397     18400     18402
     18399     18397     18400     18403     18400     18403     18406     18407
     18400     18403     18406     18408     18400     18403     18406     18409
     18401     18400     18403     18404     18401     18400     18403     18405
     18401     18400     18403     18406     18402     18400     18403     18404
     18402     18400     18403     18405     18402     18400     18403     18406
     18403     18406     18409     18410     18403     18406     18409     18411
     18403     18406     18409     18412     18404     18403     18406     18407
     18404     18403     18406     18408     18404     18403     18406     18409
     18405     18403     18406     18407     18405     18403     18406     18408
     18405     18403     18406     18409     18406     18409     18412     18413
     18406     18409     18412     18414     18407     18406     18409     18410
     18407     18406     18409     18411     18407     18406     18409     18412
     18408     18406     18409     18410     18408     18406     18409     18411
     18408     18406     18409     18412     18409     18412     18414     18415
     18409     18412     18414     18416     18410     18409     18412     18413
     18410     18409     18412     18414     18411     18409     18412     18413
     18411     18409     18412     18414     18412     18414     18416     18417
     18412     18414     18416     18418     18412     18414     18416     18419
     18413     18412     18414     18415     18413     18412     18414     18416
     18414     18416     18419     18420     18414     18416     18419     18421
     18414     18416     18419     18422     18415     18414     18416     18417
     18415     18414     18416     18418     18415     18414     18416     18419
     18416     18419     18422     18423     18416     18419     18422     18424
     18416     18419     18422     18425     18417     18416     18419     18420
     18417     18416     18419     18421     18417     18416     18419     18422
     18418     18416     18419     18420     18418     18416     18419     18421
     18418     18416     18419     18422     18419     18422     18425     18426
     18419     18422     18425     18427     18419     18422     18425     18428
     18420     18419     18422     18423     18420     18419     18422     18424
     18420     18419     18422     18425     18421     18419     18422     18423
     18421     18419     18422     18424     18421     18419     18422     18425
     18422     18425     18428     18429     18422     18425     18428     18430
     18422     18425     18428     18431     18423     18422     18425     18426
     18423     18422     18425     18427     18423     18422     18425     18428
     18424     18422     18425     18426     18424     18422     18425     18427
     18424     18422     18425     18428     18425     18428     18431     18432
     18425     18428     18431     18433     18425     18428     18431     18434
     18426     18425     18428     18429     18426     18425     18428     18430
     18426     18425     18428     18431     18427     18425     18428     18429
     18427     18425     18428     18430     18427     18425     18428     18431
     18428     18431     18434     18435     18428     18431     18434     18436
     18428     18431     18434     18437     18429     18428     18431     18432
     18429     18428     18431     18433     18429     18428     18431     18434
     18430     18428     18431     18432     18430     18428     18431     18433
     18430     18428     18431     18434     18431     18434     18437     18438
     18431     18434     18437     18439     18431     18434     18437     18440
     18432     18431     18434     18435     18432     18431     18434     18436
     18432     18431     18434     18437     18433     18431     18434     18435
     18433     18431     18434     18436     18433     18431     18434     18437
     18435     18434     18437     18438     18435     18434     18437     18439
     18435     18434     18437     18440     18436     18434     18437     18438
     18436     18434     18437     18439     18436     18434     18437     18440
     18441     18442     18457     18458     18441     18442     18457     18459
     18441     18442     18457     18463     18442     18441     18445     18446
     18442     18441     18445     18447     18442     18441     18445     18448
     18442     18441     18449     18450     18442     18441     18449     18451
     18442     18441     18449     18452     18442     18441     18453     18454
     18442     18441     18453     18455     18442     18441     18453     18456
     18442     18457     18463     18460     18443     18442     18441     18445
     18443     18442     18441     18449     18443     18442     18441     18453
     18443     18442     18457     18458     18443     18442     18457     18459
     18443     18442     18457     18463     18444     18442     18441     18445
     18444     18442     18441     18449     18444     18442     18441     18453
     18444     18442     18457     18458     18444     18442     18457     18459
     18444     18442     18457     18463     18445     18441     18442     18457
     18445     18441     18449     18450     18445     18441     18449     18451
     18445     18441     18449     18452     18445     18441     18453     18454
     18445     18441     18453     18455     18445     18441     18453     18456
     18446     18445     18441     18449     18446     18445     18441     18453
     18447     18445     18441     18449     18447     18445     18441     18453
     18448     18445     18441     18449     18448     18445     18441     18453
     18449     18441     18442     18457     18449     18441     18453     18454
     18449     18441     18453     18455     18449     18441     18453     18456
     18450     18449     18441     18453     18451     18449     18441     18453
     18452     18449     18441     18453     18453     18441     18442     18457
     18457     18463     18460     18461     18457     18463     18460     18462
     18457     18463     18460     18464     18458     18457     18463     18460
     18459     18457     18463     18460     18460     18464     18465     18466
     18460     18464     18465     18467     18460     18464     18465     18468
     18461     18460     18464     18465     18462     18460     18464     18465
     18463     18460     18464     18465     18464     18465     18468     18469
     18464     18465     18468     18470     18464     18465     18468     18476
     18465     18468     18470     18471     18465     18468     18476     18477
     18465     18468     18476     18478     18465     18468     18476     18479
     18466     18465     18468     18469     18466     18465     18468     18470
     18466     18465     18468     18476     18467     18465     18468     18469
     18467     18465     18468     18470     18467     18465     18468     18476
     18468     18470     18471     18472     18468     18470     18471     18473
     18468     18476     18479     18480     18469     18468     18470     18471
     18469     18468     18476     18477     18469     18468     18476     18478
     18469     18468     18476     18479     18470     18468     18476     18477
     18470     18468     18476     18478     18470     18468     18476     18479
     18470     18471     18473     18474     18470     18471     18473     18475
     18470     18471     18473     18485     18471     18470     18468     18476
     18471     18473     18485     18486     18471     18473     18485     18487
     18471     18473     18485     18488     18472     18471     18473     18474
     18472     18471     18473     18475     18472     18471     18473     18485
     18473     18485     18488     18489     18473     18485     18488     18490
     18473     18485     18488     18491     18474     18473     18485     18486
     18474     18473     18485     18487     18474     18473     18485     18488
     18475     18473     18485     18486     18475     18473     18485     18487
     18475     18473     18485     18488     18476     18479     18480     18481
     18476     18479     18480     18482     18477     18476     18479     18480
     18478     18476     18479     18480     18479     18480     18482     18483
     18479     18480     18482     18484     18479     18480     18482     18532
     18480     18482     18532     18533     18480     18482     18532     18534
     18480     18482     18532     18535     18481     18480     18482     18483
     18481     18480     18482     18484     18481     18480     18482     18532
     18482     18532     18535     18536     18482     18532     18535     18537
     18482     18532     18535     18538     18483     18482     18532     18533
     18483     18482     18532     18534     18483     18482     18532     18535
     18484     18482     18532     18533     18484     18482     18532     18534
     18484     18482     18532     18535     18485     18488     18491     18492
     18485     18488     18491     18493     18485     18488     18491     18494
     18486     18485     18488     18489     18486     18485     18488     18490
     18486     18485     18488     18491     18487     18485     18488     18489
     18487     18485     18488     18490     18487     18485     18488     18491
     18488     18491     18494     18495     18488     18491     18494     18496
     18488     18491     18494     18497     18489     18488     18491     18492
     18489     18488     18491     18493     18489     18488     18491     18494
     18490     18488     18491     18492     18490     18488     18491     18493
     18490     18488     18491     18494     18491     18494     18497     18498
     18491     18494     18497     18499     18491     18494     18497     18500
     18492     18491     18494     18495     18492     18491     18494     18496
     18492     18491     18494     18497     18493     18491     18494     18495
     18493     18491     18494     18496     18493     18491     18494     18497
     18494     18497     18500     18501     18494     18497     18500     18502
     18494     18497     18500     18503     18495     18494     18497     18498
     18495     18494     18497     18499     18495     18494     18497     18500
     18496     18494     18497     18498     18496     18494     18497     18499
     18496     18494     18497     18500     18497     18500     18503     18504
     18497     18500     18503     18505     18498     18497     18500     18501
     18498     18497     18500     18502     18498     18497     18500     18503
     18499     18497     18500     18501     18499     18497     18500     18502
     18499     18497     18500     18503     18500     18503     18505     18506
     18500     18503     18505     18507     18501     18500     18503     18504
     18501     18500     18503     18505     18502     18500     18503     18504
     18502     18500     18503     18505     18503     18505     18507     18508
     18503     18505     18507     18509     18503     18505     18507     18510
     18504     18503     18505     18506     18504     18503     18505     18507
     18505     18507     18510     18511     18505     18507     18510     18512
     18505     18507     18510     18513     18506     18505     18507     18508
     18506     18505     18507     18509     18506     18505     18507     18510
     18507     18510     18513     18514     18507     18510     18513     18515
     18507     18510     18513     18516     18508     18507     18510     18511
     18508     18507     18510     18512     18508     18507     18510     18513
     18509     18507     18510     18511     18509     18507     18510     18512
     18509     18507     18510     18513     18510     18513     18516     18517
     18510     18513     18516     18518     18510     18513     18516     18519
     18511     18510     18513     18514     18511     18510     18513     18515
     18511     18510     18513     18516     18512     18510     18513     18514
     18512     18510     18513     18515     18512     18510     18513     18516
     18513     18516     18519     18520     18513     18516     18519     18521
     18513     18516     18519     18522     18514     18513     18516     18517
     18514     18513     18516     18518     18514     18513     18516     18519
     18515     18513     18516     18517     18515     18513     18516     18518
     18515     18513     18516     18519     18516     18519     18522     18523
     18516     18519     18522     18524     18516     18519     18522     18525
     18517     18516     18519     18520     18517     18516     18519     18521
     18517     18516     18519     18522     18518     18516     18519     18520
     18518     18516     18519     18521     18518     18516     18519     18522
     18519     18522     18525     18526     18519     18522     18525     18527
     18519     18522     18525     18528     18520     18519     18522     18523
     18520     18519     18522     18524     18520     18519     18522     18525
     18521     18519     18522     18523     18521     18519     18522     18524
     18521     18519     18522     18525     18522     18525     18528     18529
     18522     18525     18528     18530     18522     18525     18528     18531
     18523     18522     18525     18526     18523     18522     18525     18527
     18523     18522     18525     18528     18524     18522     18525     18526
     18524     18522     18525     18527     18524     18522     18525     18528
     18526     18525     18528     18529     18526     18525     18528     18530
     18526     18525     18528     18531     18527     18525     18528     18529
     18527     18525     18528     18530     18527     18525     18528     18531
     18532     18535     18538     18539     18532     18535     18538     18540
     18532     18535     18538     18541     18533     18532     18535     18536
     18533     18532     18535     18537     18533     18532     18535     18538
     18534     18532     18535     18536     18534     18532     18535     18537
     18534     18532     18535     18538     18535     18538     18541     18542
     18535     18538     18541     18543     18535     18538     18541     18544
     18536     18535     18538     18539     18536     18535     18538     18540
     18536     18535     18538     18541     18537     18535     18538     18539
     18537     18535     18538     18540     18537     18535     18538     18541
     18538     18541     18544     18545     18538     18541     18544     18546
     18538     18541     18544     18547     18539     18538     18541     18542
     18539     18538     18541     18543     18539     18538     18541     18544
     18540     18538     18541     18542     18540     18538     18541     18543
     18540     18538     18541     18544     18541     18544     18547     18548
     18541     18544     18547     18549     18541     18544     18547     18550
     18542     18541     18544     18545     18542     18541     18544     18546
     18542     18541     18544     18547     18543     18541     18544     18545
     18543     18541     18544     18546     18543     18541     18544     18547
     18544     18547     18550     18551     18544     18547     18550     18552
     18545     18544     18547     18548     18545     18544     18547     18549
     18545     18544     18547     18550     18546     18544     18547     18548
     18546     18544     18547     18549     18546     18544     18547     18550
     18547     18550     18552     18553     18547     18550     18552     18554
     18548     18547     18550     18551     18548     18547     18550     18552
     18549     18547     18550     18551     18549     18547     18550     18552
     18550     18552     18554     18555     18550     18552     18554     18556
     18550     18552     18554     18557     18551     18550     18552     18553
     18551     18550     18552     18554     18552     18554     18557     18558
     18552     18554     18557     18559     18552     18554     18557     18560
     18553     18552     18554     18555     18553     18552     18554     18556
     18553     18552     18554     18557     18554     18557     18560     18561
     18554     18557     18560     18562     18554     18557     18560     18563
     18555     18554     18557     18558     18555     18554     18557     18559
     18555     18554     18557     18560     18556     18554     18557     18558
     18556     18554     18557     18559     18556     18554     18557     18560
     18557     18560     18563     18564     18557     18560     18563     18565
     18557     18560     18563     18566     18558     18557     18560     18561
     18558     18557     18560     18562     18558     18557     18560     18563
     18559     18557     18560     18561     18559     18557     18560     18562
     18559     18557     18560     18563     18560     18563     18566     18567
     18560     18563     18566     18568     18560     18563     18566     18569
     18561     18560     18563     18564     18561     18560     18563     18565
     18561     18560     18563     18566     18562     18560     18563     18564
     18562     18560     18563     18565     18562     18560     18563     18566
     18563     18566     18569     18570     18563     18566     18569     18571
     18563     18566     18569     18572     18564     18563     18566     18567
     18564     18563     18566     18568     18564     18563     18566     18569
     18565     18563     18566     18567     18565     18563     18566     18568
     18565     18563     18566     18569     18566     18569     18572     18573
     18566     18569     18572     18574     18566     18569     18572     18575
     18567     18566     18569     18570     18567     18566     18569     18571
     18567     18566     18569     18572     18568     18566     18569     18570
     18568     18566     18569     18571     18568     18566     18569     18572
     18569     18572     18575     18576     18569     18572     18575     18577
     18569     18572     18575     18578     18570     18569     18572     18573
     18570     18569     18572     18574     18570     18569     18572     18575
     18571     18569     18572     18573     18571     18569     18572     18574
     18571     18569     18572     18575     18573     18572     18575     18576
     18573     18572     18575     18577     18573     18572     18575     18578
     18574     18572     18575     18576     18574     18572     18575     18577
     18574     18572     18575     18578     18579     18580     18595     18596
     18579     18580     18595     18597     18579     18580     18595     18601
     18580     18579     18583     18584     18580     18579     18583     18585
     18580     18579     18583     18586     18580     18579     18587     18588
     18580     18579     18587     18589     18580     18579     18587     18590
     18580     18579     18591     18592     18580     18579     18591     18593
     18580     18579     18591     18594     18580     18595     18601     18598
     18581     18580     18579     18583     18581     18580     18579     18587
     18581     18580     18579     18591     18581     18580     18595     18596
     18581     18580     18595     18597     18581     18580     18595     18601
     18582     18580     18579     18583     18582     18580     18579     18587
     18582     18580     18579     18591     18582     18580     18595     18596
     18582     18580     18595     18597     18582     18580     18595     18601
     18583     18579     18580     18595     18583     18579     18587     18588
     18583     18579     18587     18589     18583     18579     18587     18590
     18583     18579     18591     18592     18583     18579     18591     18593
     18583     18579     18591     18594     18584     18583     18579     18587
     18584     18583     18579     18591     18585     18583     18579     18587
     18585     18583     18579     18591     18586     18583     18579     18587
     18586     18583     18579     18591     18587     18579     18580     18595
     18587     18579     18591     18592     18587     18579     18591     18593
     18587     18579     18591     18594     18588     18587     18579     18591
     18589     18587     18579     18591     18590     18587     18579     18591
     18591     18579     18580     18595     18595     18601     18598     18599
     18595     18601     18598     18600     18595     18601     18598     18602
     18596     18595     18601     18598     18597     18595     18601     18598
     18598     18602     18603     18604     18598     18602     18603     18605
     18598     18602     18603     18606     18599     18598     18602     18603
     18600     18598     18602     18603     18601     18598     18602     18603
     18602     18603     18606     18607     18602     18603     18606     18608
     18602     18603     18606     18614     18603     18606     18608     18609
     18603     18606     18614     18615     18603     18606     18614     18616
     18603     18606     18614     18617     18604     18603     18606     18607
     18604     18603     18606     18608     18604     18603     18606     18614
     18605     18603     18606     18607     18605     18603     18606     18608
     18605     18603     18606     18614     18606     18608     18609     18610
     18606     18608     18609     18611     18606     18614     18617     18618
     18607     18606     18608     18609     18607     18606     18614     18615
     18607     18606     18614     18616     18607     18606     18614     18617
     18608     18606     18614     18615     18608     18606     18614     18616
     18608     18606     18614     18617     18608     18609     18611     18612
     18608     18609     18611     18613     18608     18609     18611     18623
     18609     18608     18606     18614     18609     18611     18623     18624
     18609     18611     18623     18625     18609     18611     18623     18626
     18610     18609     18611     18612     18610     18609     18611     18613
     18610     18609     18611     18623     18611     18623     18626     18627
     18611     18623     18626     18628     18611     18623     18626     18629
     18612     18611     18623     18624     18612     18611     18623     18625
     18612     18611     18623     18626     18613     18611     18623     18624
     18613     18611     18623     18625     18613     18611     18623     18626
     18614     18617     18618     18619     18614     18617     18618     18620
     18615     18614     18617     18618     18616     18614     18617     18618
     18617     18618     18620     18621     18617     18618     18620     18622
     18617     18618     18620     18670     18618     18620     18670     18671
     18618     18620     18670     18672     18618     18620     18670     18673
     18619     18618     18620     18621     18619     18618     18620     18622
     18619     18618     18620     18670     18620     18670     18673     18674
     18620     18670     18673     18675     18620     18670     18673     18676
     18621     18620     18670     18671     18621     18620     18670     18672
     18621     18620     18670     18673     18622     18620     18670     18671
     18622     18620     18670     18672     18622     18620     18670     18673
     18623     18626     18629     18630     18623     18626     18629     18631
     18623     18626     18629     18632     18624     18623     18626     18627
     18624     18623     18626     18628     18624     18623     18626     18629
     18625     18623     18626     18627     18625     18623     18626     18628
     18625     18623     18626     18629     18626     18629     18632     18633
     18626     18629     18632     18634     18626     18629     18632     18635
     18627     18626     18629     18630     18627     18626     18629     18631
     18627     18626     18629     18632     18628     18626     18629     18630
     18628     18626     18629     18631     18628     18626     18629     18632
     18629     18632     18635     18636     18629     18632     18635     18637
     18629     18632     18635     18638     18630     18629     18632     18633
     18630     18629     18632     18634     18630     18629     18632     18635
     18631     18629     18632     18633     18631     18629     18632     18634
     18631     18629     18632     18635     18632     18635     18638     18639
     18632     18635     18638     18640     18632     18635     18638     18641
     18633     18632     18635     18636     18633     18632     18635     18637
     18633     18632     18635     18638     18634     18632     18635     18636
     18634     18632     18635     18637     18634     18632     18635     18638
     18635     18638     18641     18642     18635     18638     18641     18643
     18636     18635     18638     18639     18636     18635     18638     18640
     18636     18635     18638     18641     18637     18635     18638     18639
     18637     18635     18638     18640     18637     18635     18638     18641
     18638     18641     18643     18644     18638     18641     18643     18645
     18639     18638     18641     18642     18639     18638     18641     18643
     18640     18638     18641     18642     18640     18638     18641     18643
     18641     18643     18645     18646     18641     18643     18645     18647
     18641     18643     18645     18648     18642     18641     18643     18644
     18642     18641     18643     18645     18643     18645     18648     18649
     18643     18645     18648     18650     18643     18645     18648     18651
     18644     18643     18645     18646     18644     18643     18645     18647
     18644     18643     18645     18648     18645     18648     18651     18652
     18645     18648     18651     18653     18645     18648     18651     18654
     18646     18645     18648     18649     18646     18645     18648     18650
     18646     18645     18648     18651     18647     18645     18648     18649
     18647     18645     18648     18650     18647     18645     18648     18651
     18648     18651     18654     18655     18648     18651     18654     18656
     18648     18651     18654     18657     18649     18648     18651     18652
     18649     18648     18651     18653     18649     18648     18651     18654
     18650     18648     18651     18652     18650     18648     18651     18653
     18650     18648     18651     18654     18651     18654     18657     18658
     18651     18654     18657     18659     18651     18654     18657     18660
     18652     18651     18654     18655     18652     18651     18654     18656
     18652     18651     18654     18657     18653     18651     18654     18655
     18653     18651     18654     18656     18653     18651     18654     18657
     18654     18657     18660     18661     18654     18657     18660     18662
     18654     18657     18660     18663     18655     18654     18657     18658
     18655     18654     18657     18659     18655     18654     18657     18660
     18656     18654     18657     18658     18656     18654     18657     18659
     18656     18654     18657     18660     18657     18660     18663     18664
     18657     18660     18663     18665     18657     18660     18663     18666
     18658     18657     18660     18661     18658     18657     18660     18662
     18658     18657     18660     18663     18659     18657     18660     18661
     18659     18657     18660     18662     18659     18657     18660     18663
     18660     18663     18666     18667     18660     18663     18666     18668
     18660     18663     18666     18669     18661     18660     18663     18664
     18661     18660     18663     18665     18661     18660     18663     18666
     18662     18660     18663     18664     18662     18660     18663     18665
     18662     18660     18663     18666     18664     18663     18666     18667
     18664     18663     18666     18668     18664     18663     18666     18669
     18665     18663     18666     18667     18665     18663     18666     18668
     18665     18663     18666     18669     18670     18673     18676     18677
     18670     18673     18676     18678     18670     18673     18676     18679
     18671     18670     18673     18674     18671     18670     18673     18675
     18671     18670     18673     18676     18672     18670     18673     18674
     18672     18670     18673     18675     18672     18670     18673     18676
     18673     18676     18679     18680     18673     18676     18679     18681
     18673     18676     18679     18682     18674     18673     18676     18677
     18674     18673     18676     18678     18674     18673     18676     18679
     18675     18673     18676     18677     18675     18673     18676     18678
     18675     18673     18676     18679     18676     18679     18682     18683
     18676     18679     18682     18684     18676     18679     18682     18685
     18677     18676     18679     18680     18677     18676     18679     18681
     18677     18676     18679     18682     18678     18676     18679     18680
     18678     18676     18679     18681     18678     18676     18679     18682
     18679     18682     18685     18686     18679     18682     18685     18687
     18679     18682     18685     18688     18680     18679     18682     18683
     18680     18679     18682     18684     18680     18679     18682     18685
     18681     18679     18682     18683     18681     18679     18682     18684
     18681     18679     18682     18685     18682     18685     18688     18689
     18682     18685     18688     18690     18683     18682     18685     18686
     18683     18682     18685     18687     18683     18682     18685     18688
     18684     18682     18685     18686     18684     18682     18685     18687
     18684     18682     18685     18688     18685     18688     18690     18691
     18685     18688     18690     18692     18686     18685     18688     18689
     18686     18685     18688     18690     18687     18685     18688     18689
     18687     18685     18688     18690     18688     18690     18692     18693
     18688     18690     18692     18694     18688     18690     18692     18695
     18689     18688     18690     18691     18689     18688     18690     18692
     18690     18692     18695     18696     18690     18692     18695     18697
     18690     18692     18695     18698     18691     18690     18692     18693
     18691     18690     18692     18694     18691     18690     18692     18695
     18692     18695     18698     18699     18692     18695     18698     18700
     18692     18695     18698     18701     18693     18692     18695     18696
     18693     18692     18695     18697     18693     18692     18695     18698
     18694     18692     18695     18696     18694     18692     18695     18697
     18694     18692     18695     18698     18695     18698     18701     18702
     18695     18698     18701     18703     18695     18698     18701     18704
     18696     18695     18698     18699     18696     18695     18698     18700
     18696     18695     18698     18701     18697     18695     18698     18699
     18697     18695     18698     18700     18697     18695     18698     18701
     18698     18701     18704     18705     18698     18701     18704     18706
     18698     18701     18704     18707     18699     18698     18701     18702
     18699     18698     18701     18703     18699     18698     18701     18704
     18700     18698     18701     18702     18700     18698     18701     18703
     18700     18698     18701     18704     18701     18704     18707     18708
     18701     18704     18707     18709     18701     18704     18707     18710
     18702     18701     18704     18705     18702     18701     18704     18706
     18702     18701     18704     18707     18703     18701     18704     18705
     18703     18701     18704     18706     18703     18701     18704     18707
     18704     18707     18710     18711     18704     18707     18710     18712
     18704     18707     18710     18713     18705     18704     18707     18708
     18705     18704     18707     18709     18705     18704     18707     18710
     18706     18704     18707     18708     18706     18704     18707     18709
     18706     18704     18707     18710     18707     18710     18713     18714
     18707     18710     18713     18715     18707     18710     18713     18716
     18708     18707     18710     18711     18708     18707     18710     18712
     18708     18707     18710     18713     18709     18707     18710     18711
     18709     18707     18710     18712     18709     18707     18710     18713
     18711     18710     18713     18714     18711     18710     18713     18715
     18711     18710     18713     18716     18712     18710     18713     18714
     18712     18710     18713     18715     18712     18710     18713     18716

       318 !NIMPHI: impropers
         8         5        10         9        10         8        12        11
        18        12        20        19        20        18        22        21
        37        22        39        38        39        37        41        40
        47        41        49        48        49        47        51        50
        63        51        65        64        65        63        67        66
        79        67        81        80        81        79        83        82
        95        83        97        96        97        95        99        98
       119        99       121       120       121       119       123       122
       138       123       140       139       140       138       142       141
       162       142       164       163       164       162       166       165
       181       166       183       182       183       181       185       184
       205       185       207       206       207       205       209       208
       224       209       226       225       226       224       228       227
       248       228       250       249       258       255       260       259
       260       258       262       261       268       262       270       269
       270       268       272       271       287       272       289       288
       289       287       291       290       297       291       299       298
       299       297       301       300       313       301       315       314
       315       313       317       316       329       317       331       330
       331       329       333       332       345       333       347       346
       347       345       349       348       369       349       371       370
       371       369       373       372       388       373       390       389
       390       388       392       391       412       392       414       413
       414       412       416       415       431       416       433       432
       433       431       435       434       455       435       457       456
       457       455       459       458       474       459       476       475
       476       474       478       477       498       478       500       499
       531       530       533       532       540       539       542       541
       669       668       671       670       678       677       680       679
       807       806       809       808       816       815       818       817
       945       944       947       946       954       953       956       955
      1083      1082      1085      1084      1092      1091      1094      1093
      1221      1220      1223      1222      1230      1229      1232      1231
      1359      1358      1361      1360      1368      1367      1370      1369
      1497      1496      1499      1498      1506      1505      1508      1507
      1635      1634      1637      1636      1644      1643      1646      1645
      1773      1772      1775      1774      1782      1781      1784      1783
      1911      1910      1913      1912      1920      1919      1922      1921
      2049      2048      2051      2050      2058      2057      2060      2059
      2187      2186      2189      2188      2196      2195      2198      2197
      2325      2324      2327      2326      2334      2333      2336      2335
      2463      2462      2465      2464      2472      2471      2474      2473
      2601      2600      2603      2602      2610      2609      2612      2611
      2739      2738      2741      2740      2748      2747      2750      2749
      2877      2876      2879      2878      2886      2885      2888      2887
      3015      3014      3017      3016      3024      3023      3026      3025
      3153      3152      3155      3154      3162      3161      3164      3163
      3291      3290      3293      3292      3300      3299      3302      3301
      3429      3428      3431      3430      3438      3437      3440      3439
      3567      3566      3569      3568      3576      3575      3578      3577
      3705      3704      3707      3706      3714      3713      3716      3715
      3843      3842      3845      3844      3852      3851      3854      3853
      3981      3980      3983      3982      3990      3989      3992      3991
      4119      4118      4121      4120      4128      4127      4130      4129
      4257      4256      4259      4258      4266      4265      4268      4267
      4395      4394      4397      4396      4404      4403      4406      4405
      4533      4532      4535      4534      4542      4541      4544      4543
      4671      4670      4673      4672      4680      4679      4682      4681
      4809      4808      4811      4810      4818      4817      4820      4819
      4947      4946      4949      4948      4956      4955      4958      4957
      5085      5084      5087      5086      5094      5093      5096      5095
      5223      5222      5225      5224      5232      5231      5234      5233
      5361      5360      5363      5362      5370      5369      5372      5371
      5499      5498      5501      5500      5508      5507      5510      5509
      5637      5636      5639      5638      5646      5645      5648      5647
      5775      5774      5777      5776      5784      5783      5786      5785
      5913      5912      5915      5914      5922      5921      5924      5923
      6051      6050      6053      6052      6060      6059      6062      6061
      6189      6188      6191      6190      6198      6197      6200      6199
      6327      6326      6329      6328      6336      6335      6338      6337
      6465      6464      6467      6466      6474      6473      6476      6475
      6603      6602      6605      6604      6612      6611      6614      6613
      6741      6740      6743      6742      6750      6749      6752      6751
      6879      6878      6881      6880      6888      6887      6890      6889
      7017      7016      7019      7018      7026      7025      7028      7027
      7155      7154      7157      7156      7164      7163      7166      7165
      7293      7292      7295      7294      7302      7301      7304      7303
      7431      7430      7433      7432      7440      7439      7442      7441
      7569      7568      7571      7570      7578      7577      7580      7579
      7707      7706      7709      7708      7716      7715      7718      7717
      7845      7844      7847      7846      7854      7853      7856      7855
      7983      7982      7985      7984      7992      7991      7994      7993
      8121      8120      8123      8122      8130      8129      8132      8131
      8259      8258      8261      8260      8268      8267      8270      8269
      8397      8396      8399      8398      8406      8405      8408      8407
      8535      8534      8537      8536      8544      8543      8546      8545
      8673      8672      8675      8674      8682      8681      8684      8683
      8811      8810      8813      8812      8820      8819      8822      8821
      8949      8948      8951      8950      8958      8957      8960      8959
      9087      9086      9089      9088      9096      9095      9098      9097
      9225      9224      9227      9226      9234      9233      9236      9235
      9363      9362      9365      9364      9372      9371      9374      9373
      9501      9500      9503      9502      9510      9509      9512      9511
      9639      9638      9641      9640      9648      9647      9650      9649
      9777      9776      9779      9778      9786      9785      9788      9787
      9915      9914      9917      9916      9924      9923      9926      9925
     10053     10052     10055     10054     10062     10061     10064     10063
     10191     10190     10193     10192     10200     10199     10202     10201
     10329     10328     10331     10330     10338     10337     10340     10339
     10467     10466     10469     10468     10476     10475     10478     10477
     10605     10604     10607     10606     10614     10613     10616     10615
     10743     10742     10745     10744     10752     10751     10754     10753
     10881     10880     10883     10882     10890     10889     10892     10891
     11019     11018     11021     11020     11028     11027     11030     11029
     11157     11156     11159     11158     11166     11165     11168     11167
     11295     11294     11297     11296     11304     11303     11306     11305
     11433     11432     11435     11434     11442     11441     11444     11443
     11571     11570     11573     11572     11580     11579     11582     11581
     11709     11708     11711     11710     11718     11717     11720     11719
     11847     11846     11849     11848     11856     11855     11858     11857
     11985     11984     11987     11986     11994     11993     11996     11995
     12123     12122     12125     12124     12132     12131     12134     12133
     12261     12260     12263     12262     12270     12269     12272     12271
     12399     12398     12401     12400     12408     12407     12410     12409
     12537     12536     12539     12538     12546     12545     12548     12547
     12675     12674     12677     12676     12684     12683     12686     12685
     12813     12812     12815     12814     12822     12821     12824     12823
     12951     12950     12953     12952     12960     12959     12962     12961
     13089     13088     13091     13090     13098     13097     13100     13099
     13227     13226     13229     13228     13236     13235     13238     13237
     13365     13364     13367     13366     13374     13373     13376     13375
     13503     13502     13505     13504     13512     13511     13514     13513
     13641     13640     13643     13642     13650     13649     13652     13651
     13779     13778     13781     13780     13788     13787     13790     13789
     13917     13916     13919     13918     13926     13925     13928     13927
     14055     14054     14057     14056     14064     14063     14066     14065
     14193     14192     14195     14194     14202     14201     14204     14203
     14331     14330     14333     14332     14340     14339     14342     14341
     14469     14468     14471     14470     14478     14477     14480     14479
     14607     14606     14609     14608     14616     14615     14618     14617
     14745     14744     14747     14746     14754     14753     14756     14755
     14883     14882     14885     14884     14892     14891     14894     14893
     15021     15020     15023     15022     15030     15029     15032     15031
     15159     15158     15161     15160     15168     15167     15170     15169
     15297     15296     15299     15298     15306     15305     15308     15307
     15435     15434     15437     15436     15444     15443     15446     15445
     15573     15572     15575     15574     15582     15581     15584     15583
     15711     15710     15713     15712     15720     15719     15722     15721
     15849     15848     15851     15850     15858     15857     15860     15859
     15987     15986     15989     15988     15996     15995     15998     15997
     16125     16124     16127     16126     16134     16133     16136     16135
     16263     16262     16265     16264     16272     16271     16274     16273
     16401     16400     16403     16402     16410     16409     16412     16411
     16539     16538     16541     16540     16548     16547     16550     16549
     16677     16676     16679     16678     16686     16685     16688     16687
     16815     16814     16817     16816     16824     16823     16826     16825
     16953     16952     16955     16954     16962     16961     16964     16963
     17091     17090     17093     17092     17100     17099     17102     17101
     17229     17228     17231     17230     17238     17237     17240     17239
     17367     17366     17369     17368     17376     17375     17378     17377
     17505     17504     17507     17506     17514     17513     17516     17515
     17643     17642     17645     17644     17652     17651     17654     17653
     17781     17780     17783     17782     17790     17789     17792     17791
     17919     17918     17921     17920     17928     17927     17930     17929
     18057     18056     18059     18058     18066     18065     18068     18067
     18195     18194     18197     18196     18204     18203     18206     18205
     18333     18332     18335     18334     18342     18341     18344     18343
     18471     18470     18473     18472     18480     18479     18482     18481
     18609     18608     18611     18610     18618     18617     18620     18619

        40 !NDON: donors
         1         2         1         3         1         4        10        11
        20        21        39        40        49        50        65        66
        81        82        97        98       107       108       121       122
       140       141       150       151       164       165       183       184
       193       194       207       208       226       227       236       237
       251       252       251       253       251       254       260       261
       270       271       289       290       299       300       315       316
       331       332       347       348       357       358       371       372
       390       391       400       401       414       415       433       434
       443       444       457       458       476       477       486       487

        30 !NACC: acceptors
         9         8        19        18        38        37        48        47
        64        63        80        79        96        95       120       119
       139       138       163       162       182       181       206       205
       225       224       249       248       250       248       259       258
       269       268       288       287       298       297       314       313
       330       329       346       345       370       369       389       388
       413       412       432       431       456       455       475       474
       499       498       500       498

         0 !NNB

         0         0         0         0         0         0         0         0
         0         0         0         0         0         0         0         0
         0         0         0         0         0         0         0         0
         0         0         0         0         0         0         0         0
         0         0         0         0         0         0         0         0
         0         0         0         0         0         0         0         0
         0         0         0         0         0         0         0         0
         0         0         0         0         0         0         0         0
         0         0         0         0         0         0         0         0
         0         0         0         0         0         0         0         0
         0         0         0         0         0         0         0         0
         0         0         0         0         0         0         0         0
         0         0         0         0         0         0         0         0
         0         0         0         0         0         0         0         0
         0         0         0         0         0         0         0         0
         0         0         0         0         0         0         0         0
         0         0         0         0         0         0         0         0
         0         0         0         0         0         0         0         0
         0         0         0         0         0         0         0         0
         0         0         0         0         0         0         0         0
         0         0         0         0         0         0         0         0
         0         0         0         0         0         0         0         0
         0         0         0         0         0         0         0         0
         0         0         0         0         0         0         0         0
         0         0         0         0         0         0         0         0
         0         0         0         0         0         0         0         0
         0         0         0         0         0         0         0         0
         0         0         0         0         0         0         0         0
         0         0         0         0         0         0         0         0
         0         0         0         0         0         0         0         0
         0         0         0         0         0         0         0         0
         0         0         0         0         0         0         0         0
         0         0         0         0         0         0         0         0
         0         0         0         0         0         0         0         0
         0         0         0         0         0         0         0         0
         0         0         0         0         0         0         0         0
         0         0         0         0         0         0         0         0
         0         0         0         0         0         0         0         0
         0         0         0         0         0         0         0         0
         0         0         0         0         0         0         0         0
         0         0         0         0         0         0         0         0
         0         0         0         0         0         0         0         0
         0         0         0         0         0         0         0         0
         0         0         0         0         0         0         0         0
         0         0         0         0         0         0         0         0
         0         0         0         0         0         0         0         0
         0         0         0         0         0         0         0         0
         0         0         0         0         0         0         0         0
         0         0         0         0         0         0         0         0
         0         0         0         0         0         0         0         0
         0         0         0         0         0         0         0         0
         0         0         0         0         0         0         0         0
         0         0         0         0         0         0         0         0
         0         0         0         0         0         0         0         0
         0         0         0         0         0         0         0         0
         0         0         0         0         0         0         0         0
         0         0         0         0         0         0         0         0
         0         0         0         0         0         0         0         0
         0         0         0         0         0         0         0         0
         0         0         0         0         0         0         0         0
         0         0         0         0         0         0         0         0
         0         0         0         0         0         0         0         0
         0         0         0         0         0         0         0         0
         0         0         0         0         0         0         0         0
         0         0         0         0         0         0         0         0
         0         0         0         0         0         0         0         0
         0         0         0         0         0         0         0         0
         0         0         0         0         0         0         0         0
         0         0         0         0         0         0         0         0
         0         0         0         0         0         0         0         0
         0         0         0         0         0         0         0         0
         0         0         0         0         0         0         0         0
         0         0         0         0         0         0         0         0
         0         0         0         0         0         0         0         0
         0         0         0         0         0         0         0         0
         0         0         0         0         0         0         0         0
         0         0         0         0         0         0         0         0
         0         0         0         0         0         0         0         0
         0         0         0         0         0         0         0         0
         0         0         0         0         0         0         0         0
         0         0         0         0         0         0         0         0
         0         0         0         0         0         0         0         0
         0         0         0         0         0         0         0         0
         0         0         0         0         0         0         0         0
         0         0         0         0         0         0         0         0
         0         0         0         0         0         0         0         0
         0         0         0         0         0         0         0         0
         0         0         0         0         0         0         0         0
         0         0         0         0         0         0         0         0
         0         0         0         0         0         0         0         0
         0         0         0         0         0         0         0         0
         0         0         0         0         0         0         0         0
         0         0         0         0         0         0         0         0
         0         0         0         0         0         0         0         0
         0         0         0         0         0         0         0         0
         0         0         0         0         0         0         0         0
         0         0         0         0         0         0         0         0
         0         0         0         0         0         0         0         0
         0         0         0         0         0         0         0         0
         0         0         0         0         0         0         0         0
         0         0         0         0         0         0         0         0
         0         0         0         0         0         0         0         0
         0         0         0         0         0         0         0         0
         0         0         0         0         0         0         0         0
         0         0         0         0         0         0         0         0
         0         0         0         0         0         0         0         0
         0         0         0         0         0         0         0         0
         0         0         0         0         0         0         0         0
         0         0         0         0         0         0         0         0
         0         0         0         0         0         0         0         0
         0         0         0         0         0         0         0         0
         0         0         0         0         0         0         0         0
         0         0         0         0         0         0         0         0
         0         0         0         0         0         0         0         0
         0         0         0         0         0         0         0         0
         0         0         0         0         0         0         0         0
         0         0         0         0         0         0         0         0
         0         0         0         0         0         0         0         0
         0         0         0         0         0         0         0         0
         0         0         0         0         0         0         0         0
         0         0         0         0         0         0         0         0
         0         0         0         0         0         0         0         0
         0         0         0         0         0         0         0         0
         0         0         0         0         0         0         0         0
         0         0         0         0         0         0         0         0
         0         0         0         0         0         0         0         0
         0         0         0         0         0         0         0         0
         0         0         0         0         0         0         0         0
         0         0         0         0         0         0         0         0
         0         0         0         0         0         0         0         0
         0         0         0         0         0         0         0         0
         0         0         0         0         0         0         0         0
         0         0         0         0         0         0         0         0
         0         0         0         0         0         0         0         0
         0         0         0         0         0         0         0         0
         0         0         0         0         0         0         0         0
         0         0         0         0         0         0         0         0
         0         0         0         0         0         0         0         0
         0         0         0         0         0         0         0         0
         0         0         0         0         0         0         0         0
         0         0         0         0         0         0         0         0
         0         0         0         0         0         0         0         0
         0         0         0         0         0         0         0         0
         0         0         0         0         0         0         0         0
         0         0         0         0         0         0         0         0
         0         0         0         0         0         0         0         0
         0         0         0         0         0         0         0         0
         0         0         0         0         0         0         0         0
         0         0         0         0         0         0         0         0
         0         0         0         0         0         0         0         0
         0         0         0         0         0         0         0         0
         0         0         0         0         0         0         0         0
         0         0         0         0         0         0         0         0
         0         0         0         0         0         0         0         0
         0         0         0         0         0         0         0         0
         0         0         0         0         0         0         0         0
         0         0         0         0         0         0         0         0
         0         0         0         0         0         0         0         0
         0         0         0         0         0         0         0         0
         0         0         0         0         0         0         0         0
         0         0         0         0         0         0         0         0
         0         0         0         0         0         0         0         0
         0         0         0         0         0         0         0         0
         0         0         0         0         0         0         0         0
         0         0         0         0         0         0         0         0
         0         0         0         0         0         0         0         0
         0         0         0         0         0         0         0         0
         0         0         0         0         0         0         0         0
         0         0         0         0         0         0         0         0
         0         0         0         0         0         0         0         0
         0         0         0         0         0         0         0         0
         0         0         0         0         0         0         0         0
         0         0         0         0         0         0         0         0
         0         0         0         0         0         0         0         0
         0         0         0         0         0         0         0         0
         0         0         0         0         0         0         0         0
         0         0         0         0         0         0         0         0
         0         0         0         0         0         0         0         0
         0         0         0         0         0         0         0         0
         0         0         0         0         0         0         0         0
         0         0         0         0         0         0         0         0
         0         0         0         0         0         0         0         0
         0         0         0         0         0         0         0         0
         0         0         0         0         0         0         0         0
         0         0         0         0         0         0         0         0
         0         0         0         0         0         0         0         0
         0         0         0         0         0         0         0         0
         0         0         0         0         0         0         0         0
         0         0         0         0         0         0         0         0
         0         0         0         0         0         0         0         0
         0         0         0         0         0         0         0         0
         0         0         0         0         0         0         0         0
         0         0         0         0         0         0         0         0
         0         0         0         0         0         0         0         0
         0         0         0         0         0         0         0         0
         0         0         0         0         0         0         0         0
         0         0         0         0         0         0         0         0
         0         0         0         0         0         0         0         0
         0         0         0         0         0         0         0         0
         0         0         0         0         0         0         0         0
         0         0         0         0         0         0         0         0
         0         0         0         0         0         0         0         0
         0         0         0         0         0         0         0         0
         0         0         0         0         0         0         0         0
         0         0         0         0         0         0         0         0
         0         0         0         0         0         0         0         0
         0         0         0         0         0         0         0         0
         0         0         0         0         0         0         0         0
         0         0         0         0         0         0         0         0
         0         0         0         0         0         0         0         0
         0         0         0         0         0         0         0         0
         0         0         0         0         0         0         0         0
         0         0         0         0         0         0         0         0
         0         0         0         0         0         0         0         0
         0         0         0         0         0         0         0         0
         0         0         0         0         0         0         0         0
         0         0         0         0         0         0         0         0
         0         0         0         0         0         0         0         0
         0         0         0         0         0         0         0         0
         0         0         0         0         0         0         0         0
         0         0         0         0         0         0         0         0
         0         0         0         0         0         0         0         0
         0         0         0         0         0         0         0         0
         0         0         0         0         0         0         0         0
         0         0         0         0         0         0         0         0
         0         0         0         0         0         0         0         0
         0         0         0         0         0         0         0         0
         0         0         0         0         0         0         0         0
         0         0         0         0         0         0         0         0
         0         0         0         0         0         0         0         0
         0         0         0         0         0         0         0         0
         0         0         0         0         0         0         0         0
         0         0         0         0         0         0         0         0
         0         0         0         0         0         0         0         0
         0         0         0         0         0         0         0         0
         0         0         0         0         0         0         0         0
         0         0         0         0         0         0         0         0
         0         0         0         0         0         0         0         0
         0         0         0         0         0         0         0         0
         0         0         0         0         0         0         0         0
         0         0         0         0         0         0         0         0
         0         0         0         0         0         0         0         0
         0         0         0         0         0         0         0         0
         0         0         0         0         0         0         0         0
         0         0         0         0         0         0         0         0
         0         0         0         0         0         0         0         0
         0         0         0         0         0         0         0         0
         0         0         0         0         0         0         0         0
         0         0         0         0         0         0         0         0
         0         0         0         0         0         0         0         0
         0         0         0         0         0         0         0         0
         0         0         0         0         0         0         0         0
         0         0         0         0         0         0         0         0
         0         0         0         0         0         0         0         0
         0         0         0         0         0         0         0         0
         0         0         0         0         0         0         0         0
         0         0         0         0         0         0         0         0
         0         0         0         0         0         0         0         0
         0         0         0         0         0         0         0         0
         0         0         0         0         0         0         0         0
         0         0         0         0         0         0         0         0
         0         0         0         0         0         0         0         0
         0         0         0         0         0         0         0         0
         0         0         0         0         0         0         0         0
         0         0         0         0         0         0         0         0
         0         0         0         0         0         0         0         0
         0         0         0         0         0         0         0         0
         0         0         0         0         0         0         0         0
         0         0         0         0         0         0         0         0
         0         0         0         0         0         0         0         0
         0         0         0         0         0         0         0         0
         0         0         0         0         0         0         0         0
         0         0         0         0         0         0         0         0
         0         0         0         0         0         0         0         0
         0         0         0         0         0         0         0         0
         0         0         0         0         0         0         0         0
         0         0         0         0         0         0         0         0
         0         0         0         0         0         0         0         0
         0         0         0         0         0         0         0         0
         0         0         0         0         0         0         0         0
         0         0         0         0         0         0         0         0
         0         0         0         0         0         0         0         0
         0         0         0         0         0         0         0         0
         0         0         0         0         0         0         0         0
         0         0         0         0         0         0         0         0
         0         0         0         0         0         0         0         0
         0         0         0         0         0         0         0         0
         0         0         0         0         0         0         0         0
         0         0         0         0         0         0         0         0
         0         0         0         0         0         0         0         0
         0         0         0         0         0         0         0         0
         0         0         0         0         0         0         0         0
         0         0         0         0         0         0         0         0
         0         0         0         0         0         0         0         0
         0         0         0         0         0         0         0         0
         0         0         0         0         0         0         0         0
         0         0         0         0         0         0         0         0
         0         0         0         0         0         0         0         0
         0         0         0         0         0         0         0         0
         0         0         0         0         0         0         0         0
         0         0         0         0         0         0         0         0
         0         0         0         0         0         0         0         0
         0         0         0         0         0         0         0         0
         0         0         0         0         0         0         0         0
         0         0         0         0         0         0         0         0
         0         0         0         0         0         0         0         0
         0         0         0         0         0         0         0         0
         0         0         0         0         0         0         0         0
         0         0         0         0         0         0         0         0
         0         0         0         0         0         0         0         0
         0         0         0         0         0         0         0         0
         0         0         0         0         0         0         0         0
         0         0         0         0         0         0         0         0
         0         0         0         0         0         0         0         0
         0         0         0         0         0         0         0         0
         0         0         0         0         0         0         0         0
         0         0         0         0         0         0         0         0
         0         0         0         0         0         0         0         0
         0         0         0         0         0         0         0         0
         0         0         0         0         0         0         0         0
         0         0         0         0         0         0         0         0
         0         0         0         0         0         0         0         0
         0         0         0         0         0         0         0         0
         0         0         0         0         0         0         0         0
         0         0         0         0         0         0         0         0
         0         0         0         0         0         0         0         0
         0         0         0         0         0         0         0         0
         0         0         0         0         0         0         0         0
         0         0         0         0         0         0         0         0
         0         0         0         0         0         0         0         0
         0         0         0         0         0         0         0         0
         0         0         0         0         0         0         0         0
         0         0         0         0         0         0         0         0
         0         0         0         0         0         0         0         0
         0         0         0         0         0         0         0         0
         0         0         0         0         0         0         0         0
         0         0         0         0         0         0         0         0
         0         0         0         0         0         0         0         0
         0         0         0         0         0         0         0         0
         0         0         0         0         0         0         0         0
         0         0         0         0         0         0         0         0
         0         0         0         0         0         0         0         0
         0         0         0         0         0         0         0         0
         0         0         0         0         0         0         0         0
         0         0         0         0         0         0         0         0
         0         0         0         0         0         0         0         0
         0         0         0         0         0         0         0         0
         0         0         0         0         0         0         0         0
         0         0         0         0         0         0         0         0
         0         0         0         0         0         0         0         0
         0         0         0         0         0         0         0         0
         0         0         0         0         0         0         0         0
         0         0         0         0         0         0         0         0
         0         0         0         0         0         0         0         0
         0         0         0         0         0         0         0         0
         0         0         0         0         0         0         0         0
         0         0         0         0         0         0         0         0
         0         0         0         0         0         0         0         0
         0         0         0         0         0         0         0         0
         0         0         0         0         0         0         0         0
         0         0         0         0         0         0         0         0
         0         0         0         0         0         0         0         0
         0         0         0         0         0         0         0         0
         0         0         0         0         0         0         0         0
         0         0         0         0         0         0         0         0
         0         0         0         0         0         0         0         0
         0         0         0         0         0         0         0         0
         0         0         0         0         0         0         0         0
         0         0         0         0         0         0         0         0
         0         0         0         0         0         0         0         0
         0         0         0         0         0         0         0         0
         0         0         0         0         0         0         0         0
         0         0         0         0         0         0         0         0
         0         0         0         0         0         0         0         0
         0         0         0         0         0         0         0         0
         0         0         0         0         0         0         0         0
         0         0         0         0         0         0         0         0
         0         0         0         0         0         0         0         0
         0         0         0         0         0         0         0         0
         0         0         0         0         0         0         0         0
         0         0         0         0         0         0         0         0
         0         0         0         0         0         0         0         0
         0         0         0         0         0         0         0         0
         0         0         0         0         0         0         0         0
         0         0         0         0         0         0         0         0
         0         0         0         0         0         0         0         0
         0         0         0         0         0         0         0         0
         0         0         0         0         0         0         0         0
         0         0         0         0         0         0         0         0
         0         0         0         0         0         0         0         0
         0         0         0         0         0         0         0         0
         0         0         0         0         0         0         0         0
         0         0         0         0         0         0         0         0
         0         0         0         0         0         0         0         0
         0         0         0         0         0         0         0         0
         0         0         0         0         0         0         0         0
         0         0         0         0         0         0         0         0
         0         0         0         0         0         0         0         0
         0         0         0         0         0         0         0         0
         0         0         0         0         0         0         0         0
         0         0         0         0         0         0         0         0
         0         0         0         0         0         0         0         0
         0         0         0         0         0         0         0         0
         0         0         0         0         0         0         0         0
         0         0         0         0         0         0         0         0
         0         0         0         0         0         0         0         0
         0         0         0         0         0         0         0         0
         0         0         0         0         0         0         0         0
         0         0         0         0         0         0         0         0
         0         0         0         0         0         0         0         0
         0         0         0         0         0         0         0         0
         0         0         0         0         0         0         0         0
         0         0         0         0         0         0         0         0
         0         0         0         0         0         0         0         0
         0         0         0         0         0         0         0         0
         0         0         0         0         0         0         0         0
         0         0         0         0         0         0         0         0
         0         0         0         0         0         0         0         0
         0         0         0         0         0         0         0         0
         0         0         0         0         0         0         0         0
         0         0         0         0         0         0         0         0
         0         0         0         0         0         0         0         0
         0         0         0         0         0         0         0         0
         0         0         0         0         0         0         0         0
         0         0         0         0         0         0         0         0
         0         0         0         0         0         0         0         0
         0         0         0         0         0         0         0         0
         0         0         0         0         0         0         0         0
         0         0         0         0         0         0         0         0
         0         0         0         0         0         0         0         0
         0         0         0         0         0         0         0         0
         0         0         0         0         0         0         0         0
         0         0         0         0         0         0         0         0
         0         0         0         0         0         0         0         0
         0         0         0         0         0         0         0         0
         0         0         0         0         0         0         0         0
         0         0         0         0         0         0         0         0
         0         0         0         0         0         0         0         0
         0         0         0         0         0         0         0         0
         0         0         0         0         0         0         0         0
         0         0         0         0         0         0         0         0
         0         0         0         0         0         0         0         0
         0         0         0         0         0         0         0         0
         0         0         0         0         0         0         0         0
         0         0         0         0         0         0         0         0
         0         0         0         0         0         0         0         0
         0         0         0         0         0         0         0         0
         0         0         0         0         0         0         0         0
         0         0         0         0         0         0         0         0
         0         0         0         0         0         0         0         0
         0         0         0         0         0         0         0         0
         0         0         0         0         0         0         0         0
         0         0         0         0         0         0         0         0
         0         0         0         0         0         0         0         0
         0         0         0         0         0         0         0         0
         0         0         0         0         0         0         0         0
         0         0         0         0         0         0         0         0
         0         0         0         0         0         0         0         0
         0         0         0         0         0         0         0         0
         0         0         0         0         0         0         0         0
         0         0         0         0         0         0         0         0
         0         0         0         0         0         0         0         0
         0         0         0         0         0         0         0         0
         0         0         0         0         0         0         0         0
         0         0         0         0         0         0         0         0
         0         0         0         0         0         0         0         0
         0         0         0         0         0         0         0         0
         0         0         0         0         0         0         0         0
         0         0         0         0         0         0         0         0
         0         0         0         0         0         0         0         0
         0         0         0         0         0         0         0         0
         0         0         0         0         0         0         0         0
         0         0         0         0         0         0         0         0
         0         0         0         0         0         0         0         0
         0         0         0         0         0         0         0         0
         0         0         0         0         0         0         0         0
         0         0         0         0         0         0         0         0
         0         0         0         0         0         0         0         0
         0         0         0         0         0         0         0         0
         0         0         0         0         0         0         0         0
         0         0         0         0         0         0         0         0
         0         0         0         0         0         0         0         0
         0         0         0         0         0         0         0         0
         0         0         0         0         0         0         0         0
         0         0         0         0         0         0         0         0
         0         0         0         0         0         0         0         0
         0         0         0         0         0         0         0         0
         0         0         0         0         0         0         0         0
         0         0         0         0         0         0         0         0
         0         0         0         0         0         0         0         0
         0         0         0         0         0         0         0         0
         0         0         0         0         0         0         0         0
         0         0         0         0         0         0         0         0
         0         0         0         0         0         0         0         0
         0         0         0         0         0         0         0         0
         0         0         0         0         0         0         0         0
         0         0         0         0         0         0         0         0
         0         0         0         0         0         0         0         0
         0         0         0         0         0         0         0         0
         0         0         0         0         0         0         0         0
         0         0         0         0         0         0         0         0
         0         0         0         0         0         0         0         0
         0         0         0         0         0         0         0         0
         0         0         0         0         0         0         0         0
         0         0         0         0         0         0         0         0
         0         0         0         0         0         0         0         0
         0         0         0         0         0         0         0         0
         0         0         0         0         0         0         0         0
         0         0         0         0         0         0         0         0
         0         0         0         0         0         0         0         0
         0         0         0         0         0         0         0         0
         0         0         0         0         0         0         0         0
         0         0         0         0         0         0         0         0
         0         0         0         0         0         0         0         0
         0         0         0         0         0         0         0         0
         0         0         0         0         0         0         0         0
         0         0         0         0         0         0         0         0
         0         0         0         0         0         0         0         0
         0         0         0         0         0         0         0         0
         0         0         0         0         0         0         0         0
         0         0         0         0         0         0         0         0
         0         0         0         0         0         0         0         0
         0         0         0         0         0         0         0         0
         0         0         0         0         0         0         0         0
         0         0         0         0         0         0         0         0
         0         0         0         0         0         0         0         0
         0         0         0         0         0         0         0         0
         0         0         0         0         0         0         0         0
         0         0         0         0         0         0         0         0
         0         0         0         0         0         0         0         0
         0         0         0         0         0         0         0         0
         0         0         0         0         0         0         0         0
         0         0         0         0         0         0         0         0
         0         0         0         0         0         0         0         0
         0         0         0         0         0         0         0         0
         0         0         0         0         0         0         0         0
         0         0         0         0         0         0         0         0
         0         0         0         0         0         0         0         0
         0         0         0         0         0         0         0         0
         0         0         0         0         0         0         0         0
         0         0         0         0         0         0         0         0
         0         0         0         0         0         0         0         0
         0         0         0         0         0         0         0         0
         0         0         0         0         0         0         0         0
         0         0         0         0         0         0         0         0
         0         0         0         0         0         0         0         0
         0         0         0         0         0         0         0         0
         0         0         0         0         0         0         0         0
         0         0         0         0         0         0         0         0
         0         0         0         0         0         0         0         0
         0         0         0         0         0         0         0         0
         0         0         0         0         0         0         0         0
         0         0         0         0         0         0         0         0
         0         0         0         0         0         0         0         0
         0         0         0         0         0         0         0         0
         0         0         0         0         0         0         0         0
         0         0         0         0         0         0         0         0
         0         0         0         0         0         0         0         0
         0         0         0         0         0         0         0         0
         0         0         0         0         0         0         0         0
         0         0         0         0         0         0         0         0
         0         0         0         0         0         0         0         0
         0         0         0         0         0         0         0         0
         0         0         0         0         0         0         0         0
         0         0         0         0         0         0         0         0
         0         0         0         0         0         0         0         0
         0         0         0         0         0         0         0         0
         0         0         0         0         0         0         0         0
         0         0         0         0         0         0         0         0
         0         0         0         0         0         0         0         0
         0         0         0         0         0         0         0         0
         0         0         0         0         0         0         0         0
         0         0         0         0         0         0         0         0
         0         0         0         0         0         0         0         0
         0         0         0         0         0         0         0         0
         0         0         0         0         0         0         0         0
         0         0         0         0         0         0         0         0
         0         0         0         0         0         0         0         0
         0         0         0         0         0         0         0         0
         0         0         0         0         0         0         0         0
         0         0         0         0         0         0         0         0
         0         0         0         0         0         0         0         0
         0         0         0         0         0         0         0         0
         0         0         0         0         0         0         0         0
         0         0         0         0         0         0         0         0
         0         0         0         0         0         0         0         0
         0         0         0         0         0         0         0         0
         0         0         0         0         0         0         0         0
         0         0         0         0         0         0         0         0
         0         0         0         0         0         0         0         0
         0         0         0         0         0         0         0         0
         0         0         0         0         0         0         0         0
         0         0         0         0         0         0         0         0
         0         0         0         0         0         0         0         0
         0         0         0         0         0         0         0         0
         0         0         0         0         0         0         0         0
         0         0         0         0         0         0         0         0
         0         0         0         0         0         0         0         0
         0         0         0         0         0         0         0         0
         0         0         0         0         0         0         0         0
         0         0         0         0         0         0         0         0
         0         0         0         0         0         0         0         0
         0         0         0         0         0         0         0         0
         0         0         0         0         0         0         0         0
         0         0         0         0         0         0         0         0
         0         0         0         0         0         0         0         0
         0         0         0         0         0         0         0         0
         0         0         0         0         0         0         0         0
         0         0         0         0         0         0         0         0
         0         0         0         0         0         0         0         0
         0         0         0         0         0         0         0         0
         0         0         0         0         0         0         0         0
         0         0         0         0         0         0         0         0
         0         0         0         0         0         0         0         0
         0         0         0         0         0         0         0         0
         0         0         0         0         0         0         0         0
         0         0         0         0         0         0         0         0
         0         0         0         0         0         0         0         0
         0         0         0         0         0         0         0         0
         0         0         0         0         0         0         0         0
         0         0         0         0         0         0         0         0
         0         0         0         0         0         0         0         0
         0         0         0         0         0         0         0         0
         0         0         0         0         0         0         0         0
         0         0         0         0         0         0         0         0
         0         0         0         0         0         0         0         0
         0         0         0         0         0         0         0         0
         0         0         0         0         0         0         0         0
         0         0         0         0         0         0         0         0
         0         0         0         0         0         0         0         0
         0         0         0         0         0         0         0         0
         0         0         0         0         0         0         0         0
         0         0         0         0         0         0         0         0
         0         0         0         0         0         0         0         0
         0         0         0         0         0         0         0         0
         0         0         0         0         0         0         0         0
         0         0         0         0         0         0         0         0
         0         0         0         0         0         0         0         0
         0         0         0         0         0         0         0         0
         0         0         0         0         0         0         0         0
         0         0         0         0         0         0         0         0
         0         0         0         0         0         0         0         0
         0         0         0         0         0         0         0         0
         0         0         0         0         0         0         0         0
         0         0         0         0         0         0         0         0
         0         0         0         0         0         0         0         0
         0         0         0         0         0         0         0         0
         0         0         0         0         0         0         0         0
         0         0         0         0         0         0         0         0
         0         0         0         0         0         0         0         0
         0         0         0         0         0         0         0         0
         0         0         0         0         0         0         0         0
         0         0         0         0         0         0         0         0
         0         0         0         0         0         0         0         0
         0         0         0         0         0         0         0         0
         0         0         0         0         0         0         0         0
         0         0         0         0         0         0         0         0
         0         0         0         0         0         0         0         0
         0         0         0         0         0         0         0         0
         0         0         0         0         0         0         0         0
         0         0         0         0         0         0         0         0
         0         0         0         0         0         0         0         0
         0         0         0         0         0         0         0         0
         0         0         0         0         0         0         0         0
         0         0         0         0         0         0         0         0
         0         0         0         0         0         0         0         0
         0         0         0         0         0         0         0         0
         0         0         0         0         0         0         0         0
         0         0         0         0         0         0         0         0
         0         0         0         0         0         0         0         0
         0         0         0         0         0         0         0         0
         0         0         0         0         0         0         0         0
         0         0         0         0         0         0         0         0
         0         0         0         0         0         0         0         0
         0         0         0         0         0         0         0         0
         0         0         0         0         0         0         0         0
         0         0         0         0         0         0         0         0
         0         0         0         0         0         0         0         0
         0         0         0         0         0         0         0         0
         0         0         0         0         0         0         0         0
         0         0         0         0         0         0         0         0
         0         0         0         0         0         0         0         0
         0         0         0         0         0         0         0         0
         0         0         0         0         0         0         0         0
         0         0         0         0         0         0         0         0
         0         0         0         0         0         0         0         0
         0         0         0         0         0         0         0         0
         0         0         0         0         0         0         0         0
         0         0         0         0         0         0         0         0
         0         0         0         0         0         0         0         0
         0         0         0         0         0         0         0         0
         0         0         0         0         0         0         0         0
         0         0         0         0         0         0         0         0
         0         0         0         0         0         0         0         0
         0         0         0         0         0         0         0         0
         0         0         0         0         0         0         0         0
         0         0         0         0         0         0         0         0
         0         0         0         0         0         0         0         0
         0         0         0         0         0         0         0         0
         0         0         0         0         0         0         0         0
         0         0         0         0         0         0         0         0
         0         0         0         0         0         0         0         0
         0         0         0         0         0         0         0         0
         0         0         0         0         0         0         0         0
         0         0         0         0         0         0         0         0
         0         0         0         0         0         0         0         0
         0         0         0         0         0         0         0         0
         0         0         0         0         0         0         0         0
         0         0         0         0         0         0         0         0
         0         0         0         0         0         0         0         0
         0         0         0         0         0         0         0         0
         0         0         0         0         0         0         0         0
         0         0         0         0         0         0         0         0
         0         0         0         0         0         0         0         0
         0         0         0         0         0         0         0         0
         0         0         0         0         0         0         0         0
         0         0         0         0         0         0         0         0
         0         0         0         0         0         0         0         0
         0         0         0         0         0         0         0         0
         0         0         0         0         0         0         0         0
         0         0         0         0         0         0         0         0
         0         0         0         0         0         0         0         0
         0         0         0         0         0         0         0         0
         0         0         0         0         0         0         0         0
         0         0         0         0         0         0         0         0
         0         0         0         0         0         0         0         0
         0         0         0         0         0         0         0         0
         0         0         0         0         0         0         0         0
         0         0         0         0         0         0         0         0
         0         0         0         0         0         0         0         0
         0         0         0         0         0         0         0         0
         0         0         0         0         0         0         0         0
         0         0         0         0         0         0         0         0
         0         0         0         0         0         0         0         0
         0         0         0         0         0         0         0         0
         0         0         0         0         0         0         0         0
         0         0         0         0         0         0         0         0
         0         0         0         0         0         0         0         0
         0         0         0         0         0         0         0         0
         0         0         0         0         0         0         0         0
         0         0         0         0         0         0         0         0
         0         0         0         0         0         0         0         0
         0         0         0         0         0         0         0         0
         0         0         0         0         0         0         0         0
         0         0         0         0         0         0         0         0
         0         0         0         0         0         0         0         0
         0         0         0         0         0         0         0         0
         0         0         0         0         0         0         0         0
         0         0         0         0         0         0         0         0
         0         0         0         0         0         0         0         0
         0         0         0         0         0         0         0         0
         0         0         0         0         0         0         0         0
         0         0         0         0         0         0         0         0
         0         0         0         0         0         0         0         0
         0         0         0         0         0         0         0         0
         0         0         0         0         0         0         0         0
         0         0         0         0         0         0         0         0
         0         0         0         0         0         0         0         0
         0         0         0         0         0         0         0         0
         0         0         0         0         0         0         0         0
         0         0         0         0         0         0         0         0
         0         0         0         0         0         0         0         0
         0         0         0         0         0         0         0         0
         0         0         0         0         0         0         0         0
         0         0         0         0         0         0         0         0
         0         0         0         0         0         0         0         0
         0         0         0         0         0         0         0         0
         0         0         0         0         0         0         0         0
         0         0         0         0         0         0         0         0
         0         0         0         0         0         0         0         0
         0         0         0         0         0         0         0         0
         0         0         0         0         0         0         0         0
         0         0         0         0         0         0         0         0
         0         0         0         0         0         0         0         0
         0         0         0         0         0         0         0         0
         0         0         0         0         0         0         0         0
         0         0         0         0         0         0         0         0
         0         0         0         0         0         0         0         0
         0         0         0         0         0         0         0         0
         0         0         0         0         0         0         0         0
         0         0         0         0         0         0         0         0
         0         0         0         0         0         0         0         0
         0         0         0         0         0         0         0         0
         0         0         0         0         0         0         0         0
         0         0         0         0         0         0         0         0
         0         0         0         0         0         0         0         0
         0         0         0         0         0         0         0         0
         0         0         0         0         0         0         0         0
         0         0         0         0         0         0         0         0
         0         0         0         0         0         0         0         0
         0         0         0         0         0         0         0         0
         0         0         0         0         0         0         0         0
         0         0         0         0         0         0         0         0
         0         0         0         0         0         0         0         0
         0         0         0         0         0         0         0         0
         0         0         0         0         0         0         0         0
         0         0         0         0         0         0         0         0
         0         0         0         0         0         0         0         0
         0         0         0         0         0         0         0         0
         0         0         0         0         0         0         0         0
         0         0         0         0         0         0         0         0
         0         0         0         0         0         0         0         0
         0         0         0         0         0         0         0         0
         0         0         0         0         0         0         0         0
         0         0         0         0         0         0         0         0
         0         0         0         0         0         0         0         0
         0         0         0         0         0         0         0         0
         0         0         0         0         0         0         0         0
         0         0         0         0         0         0         0         0
         0         0         0         0         0         0         0         0
         0         0         0         0         0         0         0         0
         0         0         0         0         0         0         0         0
         0         0         0         0         0         0         0         0
         0         0         0         0         0         0         0         0
         0         0         0         0         0         0         0         0
         0         0         0         0         0         0         0         0
         0         0         0         0         0         0         0         0
         0         0         0         0         0         0         0         0
         0         0         0         0         0         0         0         0
         0         0         0         0         0         0         0         0
         0         0         0         0         0         0         0         0
         0         0         0         0         0         0         0         0
         0         0         0         0         0         0         0         0
         0         0         0         0         0         0         0         0
         0         0         0         0         0         0         0         0
         0         0         0         0         0         0         0         0
         0         0         0         0         0         0         0         0
         0         0         0         0         0         0         0         0
         0         0         0         0         0         0         0         0
         0         0         0         0         0         0         0         0
         0         0         0         0         0         0         0         0
         0         0         0         0         0         0         0         0
         0         0         0         0         0         0         0         0
         0         0         0         0         0         0         0         0
         0         0         0         0         0         0         0         0
         0         0         0         0         0         0         0         0
         0         0         0         0         0         0         0         0
         0         0         0         0         0         0         0         0
         0         0         0         0         0         0         0         0
         0         0         0         0         0         0         0         0
         0         0         0         0         0         0         0         0
         0         0         0         0         0         0         0         0
         0         0         0         0         0         0         0         0
         0         0         0         0         0         0         0         0
         0         0         0         0         0         0         0         0
         0         0         0         0         0         0         0         0
         0         0         0         0         0         0         0         0
         0         0         0         0         0         0         0         0
         0         0         0         0         0         0         0         0
         0         0         0         0         0         0         0         0
         0         0         0         0         0         0         0         0
         0         0         0         0         0         0         0         0
         0         0         0         0         0         0         0         0
         0         0         0         0         0         0         0         0
         0         0         0         0         0         0         0         0
         0         0         0         0         0         0         0         0
         0         0         0         0         0         0         0         0
         0         0         0         0         0         0         0         0
         0         0         0         0         0         0         0         0
         0         0         0         0         0         0         0         0
         0         0         0         0         0         0         0         0
         0         0         0         0         0         0         0         0
         0         0         0         0         0         0         0         0
         0         0         0         0         0         0         0         0
         0         0         0         0         0         0         0         0
         0         0         0         0         0         0         0         0
         0         0         0         0         0         0         0         0
         0         0         0         0         0         0         0         0
         0         0         0         0         0         0         0         0
         0         0         0         0         0         0         0         0
         0         0         0         0         0         0         0         0
         0         0         0         0         0         0         0         0
         0         0         0         0         0         0         0         0
         0         0         0         0         0         0         0         0
         0         0         0         0         0         0         0         0
         0         0         0         0         0         0         0         0
         0         0         0         0         0         0         0         0
         0         0         0         0         0         0         0         0
         0         0         0         0         0         0         0         0
         0         0         0         0         0         0         0         0
         0         0         0         0         0         0         0         0
         0         0         0         0         0         0         0         0
         0         0         0         0         0         0         0         0
         0         0         0         0         0         0         0         0
         0         0         0         0         0         0         0         0
         0         0         0         0         0         0         0         0
         0         0         0         0         0         0         0         0
         0         0         0         0         0         0         0         0
         0         0         0         0         0         0         0         0
         0         0         0         0         0         0         0         0
         0         0         0         0         0         0         0         0
         0         0         0         0         0         0         0         0
         0         0         0         0         0         0         0         0
         0         0         0         0         0         0         0         0
         0         0         0         0         0         0         0         0
         0         0         0         0         0         0         0         0
         0         0         0         0         0         0         0         0
         0         0         0         0         0         0         0         0
         0         0         0         0         0         0         0         0
         0         0         0         0         0         0         0         0
         0         0         0         0         0         0         0         0
         0         0         0         0         0         0         0         0
         0         0         0         0         0         0         0         0
         0         0         0         0         0         0         0         0
         0         0         0         0         0         0         0         0
         0         0         0         0         0         0         0         0
         0         0         0         0         0         0         0         0
         0         0         0         0         0         0         0         0
         0         0         0         0         0         0         0         0
         0         0         0         0         0         0         0         0
         0         0         0         0         0         0         0         0
         0         0         0         0         0         0         0         0
         0         0         0         0         0         0         0         0
         0         0         0         0         0         0         0         0
         0         0         0         0         0         0         0         0
         0         0         0         0         0         0         0         0
         0         0         0         0         0         0         0         0
         0         0         0         0         0         0         0         0
         0         0         0         0         0         0         0         0
         0         0         0         0         0         0         0         0
         0         0         0         0         0         0         0         0
         0         0         0         0         0         0         0         0
         0         0         0         0         0         0         0         0
         0         0         0         0         0         0         0         0
         0         0         0         0         0         0         0         0
         0         0         0         0         0         0         0         0
         0         0         0         0         0         0         0         0
         0         0         0         0         0         0         0         0
         0         0         0         0         0         0         0         0
         0         0         0         0         0         0         0         0
         0         0         0         0         0         0         0         0
         0         0         0         0         0         0         0         0
         0         0         0         0         0         0         0         0
         0         0         0         0         0         0         0         0
         0         0         0         0         0         0         0         0
         0         0         0         0         0         0         0         0
         0         0         0         0         0         0         0         0
         0         0         0         0         0         0         0         0
         0         0         0         0         0         0         0         0
         0         0         0         0         0         0         0         0
         0         0         0         0         0         0         0         0
         0         0         0         0         0         0         0         0
         0         0         0         0         0         0         0         0
         0         0         0         0         0         0         0         0
         0         0         0         0         0         0         0         0
         0         0         0         0         0         0         0         0
         0         0         0         0         0         0         0         0
         0         0         0         0         0         0         0         0
         0         0         0         0         0         0         0         0
         0         0         0         0         0         0         0         0
         0         0         0         0         0         0         0         0
         0         0         0         0         0         0         0         0
         0         0         0         0         0         0         0         0
         0         0         0         0         0         0         0         0
         0         0         0         0         0         0         0         0
         0         0         0         0         0         0         0         0
         0         0         0         0         0         0         0         0
         0         0         0         0         0         0         0         0
         0         0         0         0         0         0         0         0
         0         0         0         0         0         0         0         0
         0         0         0         0         0         0         0         0
         0         0         0         0         0         0         0         0
         0         0         0         0         0         0         0         0
         0         0         0         0         0         0         0         0
         0         0         0         0         0         0         0         0
         0         0         0         0         0         0         0         0
         0         0         0         0         0         0         0         0
         0         0         0         0         0         0         0         0
         0         0         0         0         0         0         0         0
         0         0         0         0         0         0         0         0
         0         0         0         0         0         0         0         0
         0         0         0         0         0         0         0         0
         0         0         0         0         0         0         0         0
         0         0         0         0         0         0         0         0
         0         0         0         0         0         0         0         0
         0         0         0         0         0         0         0         0
         0         0         0         0         0         0         0         0
         0         0         0         0         0         0         0         0
         0         0         0         0         0         0         0         0
         0         0         0         0         0         0         0         0
         0         0         0         0         0         0         0         0
         0         0         0         0         0         0         0         0
         0         0         0         0         0         0         0         0
         0         0         0         0         0         0         0         0
         0         0         0         0         0         0         0         0
         0         0         0         0         0         0         0         0
         0         0         0         0         0         0         0         0
         0         0         0         0         0         0         0         0
         0         0         0         0         0         0         0         0
         0         0         0         0         0         0         0         0
         0         0         0         0         0         0         0         0
         0         0         0         0         0         0         0         0
         0         0         0         0         0         0         0         0
         0         0         0         0         0         0         0         0
         0         0         0         0         0         0         0         0
         0         0         0         0         0         0         0         0
         0         0         0         0         0         0         0         0
         0         0         0         0         0         0         0         0
         0         0         0         0         0         0         0         0
         0         0         0         0         0         0         0         0
         0         0         0         0         0         0         0         0
         0         0         0         0         0         0         0         0
         0         0         0         0         0         0         0         0
         0         0         0         0         0         0         0         0
         0         0         0         0         0         0         0         0
         0         0         0         0         0         0         0         0
         0         0         0         0         0         0         0         0
         0         0         0         0         0         0         0         0
         0         0         0         0         0         0         0         0
         0         0         0         0         0         0         0         0
         0         0         0         0         0         0         0         0
         0         0         0         0         0         0         0         0
         0         0         0         0         0         0         0         0
         0         0         0         0         0         0         0         0
         0         0         0         0         0         0         0         0
         0         0         0         0         0         0         0         0
         0         0         0         0         0         0         0         0
         0         0         0         0         0         0         0         0
         0         0         0         0         0         0         0         0
         0         0         0         0         0         0         0         0
         0         0         0         0         0         0         0         0
         0         0         0         0         0         0         0         0
         0         0         0         0         0         0         0         0
         0         0         0         0         0         0         0         0
         0         0         0         0         0         0         0         0
         0         0         0         0         0         0         0         0
         0         0         0         0         0         0         0         0
         0         0         0         0         0         0         0         0
         0         0         0         0         0         0         0         0
         0         0         0         0         0         0         0         0
         0         0         0         0         0         0         0         0
         0         0         0         0         0         0         0         0
         0         0         0         0         0         0         0         0
         0         0         0         0         0         0         0         0
         0         0         0         0         0         0         0         0
         0         0         0         0         0         0         0         0
         0         0         0         0         0         0         0         0
         0         0         0         0         0         0         0         0
         0         0         0         0         0         0         0         0
         0         0         0         0         0         0         0         0
         0         0         0         0         0         0         0         0
         0         0         0         0         0         0         0         0
         0         0         0         0         0         0         0         0
         0         0         0         0         0         0         0         0
         0         0         0         0         0         0         0         0
         0         0         0         0         0         0         0         0
         0         0         0         0         0         0         0         0
         0         0         0         0         0         0         0         0
         0         0         0         0         0         0         0         0
         0         0         0         0         0         0         0         0
         0         0         0         0         0         0         0         0
         0         0         0         0         0         0         0         0
         0         0         0         0         0         0         0         0
         0         0         0         0         0         0         0         0
         0         0         0         0         0         0         0         0
         0         0         0         0         0         0         0         0
         0         0         0         0         0         0         0         0
         0         0         0         0         0         0         0         0
         0         0         0         0         0         0         0         0
         0         0         0         0         0         0         0         0
         0         0         0         0         0         0         0         0
         0         0         0         0         0         0         0         0
         0         0         0         0         0         0         0         0
         0         0         0         0         0         0         0         0
         0         0         0         0         0         0         0         0
         0         0         0         0         0         0         0         0
         0         0         0         0         0         0         0         0
         0         0         0         0         0         0         0         0
         0         0         0         0         0         0         0         0
         0         0         0         0         0         0         0         0
         0         0         0         0         0         0         0         0
         0         0         0         0         0         0         0         0
         0         0         0         0         0         0         0         0
         0         0         0         0         0         0         0         0
         0         0         0         0         0         0         0         0
         0         0         0         0         0         0         0         0
         0         0         0         0         0         0         0         0
         0         0         0         0         0         0         0         0
         0         0         0         0         0         0         0         0
         0         0         0         0         0         0         0         0
         0         0         0         0         0         0         0         0
         0         0         0         0         0         0         0         0
         0         0         0         0         0         0         0         0
         0         0         0         0         0         0         0         0
         0         0         0         0         0         0         0         0
         0         0         0         0         0         0         0         0
         0         0         0         0         0         0         0         0
         0         0         0         0         0         0         0         0
         0         0         0         0         0         0         0         0
         0         0         0         0         0         0         0         0
         0         0         0         0         0         0         0         0
         0         0         0         0         0         0         0         0
         0         0         0         0         0         0         0         0
         0         0         0         0         0         0         0         0
         0         0         0         0         0         0         0         0
         0         0         0         0         0         0         0         0
         0         0         0         0         0         0         0         0
         0         0         0         0         0         0         0         0
         0         0         0         0         0         0         0         0
         0         0         0         0         0         0         0         0
         0         0         0         0         0         0         0         0
         0         0         0         0         0         0         0         0
         0         0         0         0         0         0         0         0
         0         0         0         0         0         0         0         0
         0         0         0         0         0         0         0         0
         0         0         0         0         0         0         0         0
         0         0         0         0         0         0         0         0
         0         0         0         0         0         0         0         0
         0         0         0         0         0         0         0         0
         0         0         0         0         0         0         0         0
         0         0         0         0         0         0         0         0
         0         0         0         0         0         0         0         0
         0         0         0         0         0         0         0         0
         0         0         0         0         0         0         0         0
         0         0         0         0         0         0         0         0
         0         0         0         0         0         0         0         0
         0         0         0         0         0         0         0         0
         0         0         0         0         0         0         0         0
         0         0         0         0         0         0         0         0
         0         0         0         0         0         0         0         0
         0         0         0         0         0         0         0         0
         0         0         0         0         0         0         0         0
         0         0         0         0         0         0         0         0
         0         0         0         0         0         0         0         0
         0         0         0         0         0         0         0         0
         0         0         0         0         0         0         0         0
         0         0         0         0         0         0         0         0
         0         0         0         0         0         0         0         0
         0         0         0         0         0         0         0         0
         0         0         0         0         0         0         0         0
         0         0         0         0         0         0         0         0
         0         0         0         0         0         0         0         0
         0         0         0         0         0         0         0         0
         0         0         0         0         0         0         0         0
         0         0         0         0         0         0         0         0
         0         0         0         0         0         0         0         0
         0         0         0         0         0         0         0         0
         0         0         0         0         0         0         0         0
         0         0         0         0         0         0         0         0
         0         0         0         0         0         0         0         0
         0         0         0         0         0         0         0         0
         0         0         0         0         0         0         0         0
         0         0         0         0         0         0         0         0
         0         0         0         0         0         0         0         0
         0         0         0         0         0         0         0         0
         0         0         0         0         0         0         0         0
         0         0         0         0         0         0         0         0
         0         0         0         0         0         0         0         0
         0         0         0         0         0         0         0         0
         0         0         0         0         0         0         0         0
         0         0         0         0         0         0         0         0
         0         0         0         0         0         0         0         0
         0         0         0         0         0         0         0         0
         0         0         0         0         0         0         0         0
         0         0         0         0         0         0         0         0
         0         0         0         0         0         0         0         0
         0         0         0         0         0         0         0         0
         0         0         0         0         0         0         0         0
         0         0         0         0         0         0         0         0
         0         0         0         0         0         0         0         0
         0         0         0         0         0         0         0         0
         0         0         0         0         0         0         0         0
         0         0         0         0         0         0         0         0
         0         0         0         0         0         0         0         0
         0         0         0         0         0         0         0         0
         0         0         0         0         0         0         0         0
         0         0         0         0         0         0         0         0
         0         0         0         0         0         0         0         0
         0         0         0         0         0         0         0         0
         0         0         0         0         0         0         0         0
         0         0         0         0         0         0         0         0
         0         0         0         0         0         0         0         0
         0         0         0         0         0         0         0         0
         0         0         0         0         0         0         0         0
         0         0         0         0         0         0         0         0
         0         0         0         0         0         0         0         0
         0         0         0         0         0         0         0         0
         0         0         0         0         0         0         0         0
         0         0         0         0         0         0         0         0
         0         0         0         0         0         0         0         0
         0         0         0         0         0         0         0         0
         0         0         0         0         0         0         0         0
         0         0         0         0         0         0         0         0
         0         0         0         0         0         0         0         0
         0         0         0         0         0         0         0         0
         0         0         0         0         0         0         0         0
         0         0         0         0         0         0         0         0
         0         0         0         0         0         0         0         0
         0         0         0         0         0         0         0         0
         0         0         0         0         0         0         0         0
         0         0         0         0         0         0         0         0
         0         0         0         0         0         0         0         0
         0         0         0         0         0         0         0         0
         0         0         0         0         0         0         0         0
         0         0         0         0         0         0         0         0
         0         0         0         0         0         0         0         0
         0         0         0         0         0         0         0         0
         0         0         0         0         0         0         0         0
         0         0         0         0         0         0         0         0
         0         0         0         0         0         0         0         0
         0         0         0         0         0         0         0         0
         0         0         0         0         0         0         0         0
         0         0         0         0         0         0         0         0
         0         0         0         0         0         0         0         0
         0         0         0         0         0         0         0         0
         0         0         0         0         0         0         0         0
         0         0         0         0         0         0         0         0
         0         0         0         0         0         0         0         0
         0         0         0         0         0         0         0         0
         0         0         0         0         0         0         0         0
         0         0         0         0         0         0         0         0
         0         0         0         0         0         0         0         0
         0         0         0         0         0         0         0         0
         0         0         0         0         0         0         0         0
         0         0         0         0         0         0         0         0
         0         0         0         0         0         0         0         0
         0         0         0         0         0         0         0         0
         0         0         0         0         0         0         0         0
         0         0         0         0         0         0         0         0
         0         0         0         0         0         0         0         0
         0         0         0         0         0         0         0         0
         0         0         0         0         0         0         0         0
         0         0         0         0         0         0         0         0
         0         0         0         0         0         0         0         0
         0         0         0         0         0         0         0         0
         0         0         0         0         0         0         0         0
         0         0         0         0         0         0         0         0
         0         0         0         0         0         0         0         0
         0         0         0         0         0         0         0         0
         0         0         0         0         0         0         0         0
         0         0         0         0         0         0         0         0
         0         0         0         0         0         0         0         0
         0         0         0         0         0         0         0         0
         0         0         0         0         0         0         0         0
         0         0         0         0         0         0         0         0
         0         0         0         0         0         0         0         0
         0         0         0         0         0         0         0         0
         0         0         0         0         0         0         0         0
         0         0         0         0         0         0         0         0
         0         0         0         0         0         0         0         0
         0         0         0         0         0         0         0         0
         0         0         0         0         0         0         0         0
         0         0         0         0         0         0         0         0
         0         0         0         0         0         0         0         0
         0         0         0         0         0         0         0         0
         0         0         0         0         0         0         0         0
         0         0         0         0         0         0         0         0
         0         0         0         0         0         0         0         0
         0         0         0         0         0         0         0         0
         0         0         0         0         0         0         0         0
         0         0         0         0         0         0         0         0
         0         0         0         0         0         0         0         0
         0         0         0         0         0         0         0         0
         0         0         0         0         0         0         0         0
         0         0         0         0         0         0         0         0
         0         0         0         0         0         0         0         0
         0         0         0         0         0         0         0         0
         0         0         0         0         0         0         0         0
         0         0         0         0         0         0         0         0
         0         0         0         0         0         0         0         0
         0         0         0         0         0         0         0         0
         0         0         0         0         0         0         0         0
         0         0         0         0         0         0         0         0
         0         0         0         0         0         0         0         0
         0         0         0         0         0         0         0         0
         0         0         0         0         0         0         0         0
         0         0         0         0         0         0         0         0
         0         0         0         0         0         0         0         0
         0         0         0         0         0         0         0         0
         0         0         0         0         0         0         0         0
         0         0         0         0         0         0         0         0
         0         0         0         0         0         0         0         0
         0         0         0         0         0         0         0         0
         0         0         0         0         0         0         0         0
         0         0         0         0         0         0         0         0
         0         0         0         0         0         0         0         0
         0         0         0         0         0         0         0         0
         0         0         0         0         0         0         0         0
         0         0         0         0         0         0         0         0
         0         0         0         0         0         0         0         0
         0         0         0         0         0         0         0         0
         0         0         0         0         0         0         0         0
         0         0         0         0         0         0         0         0
         0         0         0         0         0         0         0         0
         0         0         0         0         0         0         0         0
         0         0         0         0         0         0         0         0
         0         0         0         0         0         0         0         0
         0         0         0         0         0         0         0         0
         0         0         0         0         0         0         0         0
         0         0         0         0         0         0         0         0
         0         0         0         0         0         0         0         0
         0         0         0         0         0         0         0         0
         0         0         0         0         0         0         0         0
         0         0         0         0         0         0         0         0
         0         0         0         0         0         0         0         0
         0         0         0         0         0         0         0         0
         0         0         0         0         0         0         0         0
         0         0         0         0         0         0         0         0
         0         0         0         0         0         0         0         0
         0         0         0         0         0         0         0         0
         0         0         0         0         0         0         0         0
         0         0         0         0         0         0         0         0
         0         0         0         0         0         0         0         0
         0         0         0         0         0         0         0         0
         0         0         0         0         0         0         0         0
         0         0         0         0         0         0         0         0
         0         0         0         0         0         0         0         0
         0         0         0         0         0         0         0         0
         0         0         0         0         0         0         0         0
         0         0         0         0         0         0         0         0
         0         0         0         0         0         0         0         0
         0         0         0         0         0         0         0         0
         0         0         0         0         0         0         0         0
         0         0         0         0         0         0         0         0
         0         0         0         0         0         0         0         0
         0         0         0         0         0         0         0         0
         0         0         0         0         0         0         0         0
         0         0         0         0         0         0         0         0
         0         0         0         0         0         0         0         0
         0         0         0         0         0         0         0         0
         0         0         0         0         0         0         0         0
         0         0         0         0         0         0         0         0
         0         0         0         0         0         0         0         0
         0         0         0         0         0         0         0         0
         0         0         0         0         0         0         0         0
         0         0         0         0         0         0         0         0
         0         0         0         0         0         0         0         0
         0         0         0         0         0         0         0         0
         0         0         0         0         0         0         0         0
         0         0         0         0         0         0         0         0
         0         0         0         0         0         0         0         0
         0         0         0         0         0         0         0         0
         0         0         0         0         0         0         0         0
         0         0         0         0         0         0         0         0
         0         0         0         0         0         0         0         0
         0         0         0         0         0         0         0         0
         0         0         0         0         0         0         0         0
         0         0         0         0         0         0         0         0
         0         0         0         0         0         0         0         0
         0         0         0         0         0         0         0         0
         0         0         0         0         0         0         0         0
         0         0         0         0         0         0         0         0
         0         0         0         0         0         0         0         0
         0         0         0         0         0         0         0         0
         0         0         0         0         0         0         0         0
         0         0         0         0         0         0         0         0
         0         0         0         0         0         0         0         0
         0         0         0         0         0         0         0         0
         0         0         0         0         0         0         0         0
         0         0         0         0         0         0         0         0
         0         0         0         0         0         0         0         0
         0         0         0         0         0         0         0         0
         0         0         0         0         0         0         0         0
         0         0         0         0         0         0         0         0
         0         0         0         0         0         0         0         0
         0         0         0         0         0         0         0         0
         0         0         0         0         0         0         0         0
         0         0         0         0         0         0         0         0
         0         0         0         0         0         0         0         0
         0         0         0         0         0         0         0         0
         0         0         0         0         0         0         0         0
         0         0         0         0         0         0         0         0
         0         0         0         0         0         0         0         0
         0         0         0         0         0         0         0         0
         0         0         0         0         0         0         0         0
         0         0         0         0         0         0         0         0
         0         0         0         0         0         0         0         0
         0         0         0         0         0         0         0         0
         0         0         0         0         0         0         0         0
         0         0         0         0         0         0         0         0
         0         0         0         0         0         0         0         0
         0         0         0         0         0         0         0         0
         0         0         0         0         0         0         0         0
         0         0         0         0         0         0         0         0
         0         0         0         0         0         0         0         0
         0         0         0         0         0         0         0         0
         0         0         0         0         0         0         0         0
         0         0         0         0         0         0         0         0
         0         0         0         0         0         0         0         0
         0         0         0         0         0         0         0         0
         0         0         0         0         0         0         0         0
         0         0         0         0         0         0         0         0
         0         0         0         0         0         0         0         0
         0         0         0         0         0         0         0         0
         0         0         0         0         0         0         0         0
         0         0         0         0         0         0         0         0
         0         0         0         0         0         0         0         0
         0         0         0         0         0         0         0         0
         0         0         0         0         0         0         0         0
         0         0         0         0         0         0         0         0
         0         0         0         0         0         0         0         0
         0         0         0         0         0         0         0         0
         0         0         0         0         0         0         0         0
         0         0         0         0         0         0         0         0
         0         0         0         0         0         0         0         0
         0         0         0         0         0         0         0         0
         0         0         0         0         0         0         0         0
         0         0         0         0         0         0         0         0
         0         0         0         0         0         0         0         0
         0         0         0         0         0         0         0         0
         0         0         0         0         0         0         0         0
         0         0         0         0         0         0         0         0
         0         0         0         0         0         0         0         0
         0         0         0         0         0         0         0         0
         0         0         0         0         0         0         0         0
         0         0         0         0         0         0         0         0
         0         0         0         0         0         0         0         0
         0         0         0         0         0         0         0         0
         0         0         0         0         0         0         0         0
         0         0         0         0         0         0         0         0
         0         0         0         0         0         0         0         0
         0         0         0         0         0         0         0         0
         0         0         0         0         0         0         0         0
         0         0         0         0         0         0         0         0
         0         0         0         0         0         0         0         0
         0         0         0         0         0         0         0         0
         0         0         0         0         0         0         0         0
         0         0         0         0         0         0         0         0
         0         0         0         0         0         0         0         0
         0         0         0         0         0         0         0         0
         0         0         0         0         0         0         0         0
         0         0         0         0         0         0         0         0
         0         0         0         0         0         0         0         0
         0         0         0         0         0         0         0         0
         0         0         0         0         0         0         0         0
         0         0         0         0         0         0         0         0
         0         0         0         0         0         0         0         0
         0         0         0         0         0         0         0         0
         0         0         0         0         0         0         0         0
         0         0         0         0         0         0         0         0
         0         0         0         0         0         0         0         0
         0         0         0         0         0         0         0         0
         0         0         0         0         0         0         0         0
         0         0         0         0         0         0         0         0
         0         0         0         0         0         0         0         0
         0         0         0         0         0         0         0         0
         0         0         0         0         0         0         0         0
         0         0         0         0         0         0         0         0
         0         0         0         0         0         0         0         0
         0         0         0         0         0         0         0         0
         0         0         0         0         0         0         0         0
         0         0         0         0         0         0         0         0
         0         0         0         0         0         0         0         0
         0         0         0         0         0         0         0         0
         0         0         0         0         0         0         0         0
         0         0         0         0         0         0         0         0
         0         0         0         0         0         0         0         0
         0         0         0         0         0         0         0         0
         0         0         0         0         0         0         0         0
         0         0         0         0         0         0         0         0
         0         0         0         0         0         0         0         0
         0         0         0         0         0         0         0         0
         0         0         0         0         0         0         0         0
         0         0         0         0         0         0         0         0
         0         0         0         0         0         0         0         0
         0         0         0         0         0         0         0         0
         0         0         0         0         0         0         0         0
         0         0         0         0         0         0         0         0
         0         0         0         0         0         0         0         0
         0         0         0         0         0         0         0         0
         0         0         0         0         0         0         0         0
         0         0         0         0         0         0         0         0
         0         0         0         0         0         0         0         0
         0         0         0         0         0         0         0         0
         0         0         0         0         0         0         0         0
         0         0         0         0         0         0         0         0
         0         0         0         0         0         0         0         0
         0         0         0         0         0         0         0         0
         0         0         0         0         0         0         0         0
         0         0         0         0         0         0         0         0
         0         0         0         0         0         0         0         0
         0         0         0         0         0         0         0         0
         0         0         0         0         0         0         0         0
         0         0         0         0         0         0         0         0
         0         0         0         0         0         0         0         0
         0         0         0         0         0         0         0         0
         0         0         0         0         0         0         0         0
         0         0         0         0         0         0         0         0
         0         0         0         0         0         0         0         0
         0         0         0         0         0         0         0         0
         0         0         0         0         0         0         0         0
         0         0         0         0         0         0         0         0
         0         0         0         0         0         0         0         0
         0         0         0         0         0         0         0         0
         0         0         0         0         0         0         0         0
         0         0         0         0         0         0         0         0
         0         0         0         0         0         0         0         0
         0         0         0         0         0         0         0         0
         0         0         0         0         0         0         0         0
         0         0         0         0         0         0         0         0
         0         0         0         0         0         0         0         0
         0         0         0         0         0         0         0         0
         0         0         0         0         0         0         0         0
         0         0         0         0         0         0         0         0
         0         0         0         0         0         0         0         0
         0         0         0         0         0         0         0         0
         0         0         0         0         0         0         0         0
         0         0         0         0         0         0         0         0
         0         0         0         0         0         0         0         0
         0         0         0         0         0         0         0         0
         0         0         0         0         0         0         0         0
         0         0         0         0         0         0         0         0
         0         0         0         0         0         0         0         0
         0         0         0         0         0         0         0         0
         0         0         0         0         0         0         0         0
         0         0         0         0         0         0         0         0
         0         0         0         0         0         0         0         0
         0         0         0         0         0         0         0         0
         0         0         0         0         0         0         0         0
         0         0         0         0         0         0         0         0
         0         0         0         0         0         0         0         0
         0         0         0         0         0         0         0         0
         0         0         0         0         0         0         0         0
         0         0         0         0         0         0         0         0
         0         0         0         0         0         0         0         0
         0         0         0         0         0         0         0         0
         0         0         0         0         0         0         0         0
         0         0         0         0         0         0         0         0
         0         0         0         0         0         0         0         0
         0         0         0         0         0         0         0         0
         0         0         0         0         0         0         0         0
         0         0         0         0         0         0         0         0
         0         0         0         0         0         0         0         0
         0         0         0         0         0         0         0         0
         0         0         0         0         0         0         0         0
         0         0         0         0         0         0         0         0
         0         0         0         0         0         0         0         0
         0         0         0         0         0         0         0         0
         0         0         0         0         0         0         0         0
         0         0         0         0         0         0         0         0
         0         0         0         0         0         0         0         0
         0         0         0         0         0         0         0         0
         0         0         0         0         0         0         0         0
         0         0         0         0         0         0         0         0
         0         0         0         0         0         0         0         0
         0         0         0         0         0         0         0         0
         0         0         0         0         0         0         0         0
         0         0         0         0         0         0         0         0
         0         0         0         0         0         0         0         0
         0         0         0         0         0         0         0         0
         0         0         0         0         0         0         0         0
         0         0         0         0         0         0         0         0
         0         0         0         0         0         0         0         0
         0         0         0         0         0         0         0         0
         0         0         0         0         0         0         0         0
         0         0         0         0         0         0         0         0
         0         0         0         0         0         0         0         0
         0         0         0         0         0         0         0         0
         0         0         0         0         0         0         0         0
         0         0         0         0         0         0         0         0
         0         0         0         0         0         0         0         0
         0         0         0         0         0         0         0         0
         0         0         0         0         0         0         0         0
         0         0         0         0         0         0         0         0
         0         0         0         0         0         0         0         0
         0         0         0         0         0         0         0         0
         0         0         0         0         0         0         0         0
         0         0         0         0         0         0         0         0
         0         0         0         0         0         0         0         0
         0         0         0         0         0         0         0         0
         0         0         0         0         0         0         0         0
         0         0         0         0         0         0         0         0
         0         0         0         0         0         0         0         0
         0         0         0         0         0         0         0         0
         0         0         0         0         0         0         0         0
         0         0         0         0         0         0         0         0
         0         0         0         0         0         0         0         0
         0         0         0         0         0         0         0         0
         0         0         0         0         0         0         0         0
         0         0         0         0         0         0         0         0
         0         0         0         0         0         0         0         0
         0         0         0         0         0         0         0         0
         0         0         0         0         0         0         0         0
         0         0         0         0         0         0         0         0
         0         0         0         0         0         0         0         0
         0         0         0         0         0         0         0         0
         0         0         0         0         0         0         0         0
         0         0         0         0         0         0         0         0
         0         0         0         0         0         0         0         0
         0         0         0         0         0         0         0         0
         0         0         0         0         0         0         0         0
         0         0         0         0         0         0         0         0
         0         0         0         0         0         0         0         0
         0         0         0         0         0         0         0         0
         0         0         0         0         0         0         0         0
         0         0         0         0         0         0         0         0
         0         0         0         0         0         0         0         0
         0         0         0         0         0         0         0         0
         0         0         0         0         0         0         0         0
         0         0         0         0         0         0         0         0
         0         0         0         0         0         0         0         0
         0         0         0         0         0         0         0         0
         0         0         0         0         0         0         0         0
         0         0         0         0         0         0         0         0
         0         0         0         0         0         0         0         0
         0         0         0         0         0         0         0         0
         0         0         0         0         0         0         0         0
         0         0         0         0         0         0         0         0
         0         0         0         0         0         0         0         0
         0         0         0         0         0         0         0         0
         0         0         0         0         0         0         0         0
         0         0         0         0         0         0         0         0
         0         0         0         0         0         0         0         0
         0         0         0         0         0         0         0         0
         0         0         0         0         0         0         0         0
         0         0         0         0         0         0         0         0
         0         0         0         0         0         0         0         0
         0         0         0         0         0         0         0         0
         0         0         0         0         0         0         0         0
         0         0         0         0         0         0         0         0
         0         0         0         0         0         0         0         0
         0         0         0         0         0         0         0         0
         0         0         0         0         0         0         0         0
         0         0         0         0         0         0         0         0
         0         0         0         0         0         0         0         0
         0         0         0         0         0         0         0         0
         0         0         0         0         0         0         0         0
         0         0         0         0         0         0         0         0
         0         0         0         0         0         0         0         0
         0         0         0         0         0         0         0         0
         0         0         0         0         0         0         0         0
         0         0         0         0         0         0         0         0
         0         0         0         0         0         0         0         0
         0         0         0         0         0         0         0         0
         0         0         0         0         0         0         0         0
         0         0         0         0         0         0         0         0
         0         0         0         0         0         0         0         0
         0         0         0         0         0         0         0         0
         0         0         0         0         0         0         0         0
         0         0         0         0         0         0         0         0
         0         0         0         0         0         0         0         0
         0         0         0         0         0         0         0         0
         0         0         0         0         0         0         0         0
         0         0         0         0         0         0         0         0
         0         0         0         0         0         0         0         0
         0         0         0         0         0         0         0         0
         0         0         0         0         0         0         0         0
         0         0         0         0         0         0         0         0
         0         0         0         0         0         0         0         0
         0         0         0         0         0         0         0         0
         0         0         0         0         0         0         0         0
         0         0         0         0         0         0         0         0
         0         0         0         0         0         0         0         0
         0         0         0         0         0         0         0         0
         0         0         0         0         0         0         0         0
         0         0         0         0         0         0         0         0
         0         0         0         0         0         0         0         0
         0         0         0         0         0         0         0         0
         0         0         0         0         0         0         0         0
         0         0         0         0         0         0         0         0
         0         0         0         0         0         0         0         0
         0         0         0         0         0         0         0         0
         0         0         0         0         0         0         0         0
         0         0         0         0         0         0         0         0
         0         0         0         0         0         0         0         0
         0         0         0         0         0         0         0         0
         0         0         0         0         0         0         0         0
         0         0         0         0         0         0         0         0
         0         0         0         0         0         0         0         0
         0         0         0         0         0         0         0         0
         0         0         0         0         0         0         0         0
         0         0         0         0         0         0         0         0
         0         0         0         0         0         0         0         0
         0         0         0         0         0         0         0         0
         0         0         0         0         0         0         0         0
         0         0         0         0         0         0         0         0
         0         0         0         0         0         0         0         0
         0         0         0         0         0         0         0         0
         0         0         0         0         0         0         0         0
         0         0         0         0         0         0         0         0
         0         0         0         0         0         0         0         0
         0         0         0         0         0         0         0         0
         0         0         0         0         0         0         0         0
         0         0         0         0         0         0         0         0
         0         0         0         0         0         0         0         0
         0         0         0         0         0         0         0         0
         0         0         0         0         0         0         0         0
         0         0         0         0         0         0         0         0
         0         0         0         0         0         0         0         0
         0         0         0         0         0         0         0         0
         0         0         0         0         0         0         0         0
         0         0         0         0         0         0         0         0
         0         0         0         0         0         0         0         0
         0         0         0         0         0         0         0         0
         0         0         0         0         0         0         0         0
         0         0         0         0         0         0         0         0
         0         0         0         0         0         0         0         0
         0         0         0         0         0         0         0         0
         0         0         0         0         0         0         0         0
         0         0         0         0         0         0         0         0
         0         0         0         0         0         0         0         0
         0         0         0         0         0         0         0         0
         0         0         0         0         0         0         0         0
         0         0         0         0         0         0         0         0
         0         0         0         0         0         0         0         0
         0         0         0         0         0         0         0         0
         0         0         0         0         0         0         0         0
         0         0         0         0         0         0         0         0
         0         0         0         0         0         0         0         0
         0         0         0         0         0         0         0         0
         0         0         0         0         0         0         0         0
         0         0         0         0         0         0         0         0
         0         0         0         0         0         0         0         0
         0         0         0         0         0         0         0         0
         0         0         0         0         0         0         0         0
         0         0         0         0         0         0         0         0
         0         0         0         0         0         0         0         0
         0         0         0         0         0         0         0         0
         0         0         0         0         0         0         0         0
         0         0         0         0         0         0         0         0
         0         0         0         0         0         0         0         0
         0         0         0         0         0         0         0         0
         0         0         0         0         0         0         0         0
         0         0         0         0         0         0         0         0
         0         0         0         0         0         0         0         0
         0         0         0         0         0         0         0         0
         0         0         0         0         0         0         0         0
         0         0         0         0         0         0         0         0
         0         0         0         0         0         0         0         0
         0         0         0         0         0         0         0         0
         0         0         0         0         0         0         0         0
         0         0         0         0         0         0         0         0
         0         0         0         0         0         0         0         0
         0         0         0         0         0         0         0         0
         0         0         0         0         0         0         0         0
         0         0         0         0         0         0         0         0
         0         0         0         0         0         0         0         0
         0         0         0         0         0         0         0         0
         0         0         0         0         0         0         0         0
         0         0         0         0         0         0         0         0
         0         0         0         0         0         0         0         0
         0         0         0         0         0         0         0         0
         0         0         0         0         0         0         0         0
         0         0         0         0         0         0         0         0
         0         0         0         0         0         0         0         0
         0         0         0         0         0         0         0         0
         0         0         0         0         0         0         0         0
         0         0         0         0         0         0         0         0
         0         0         0         0         0         0         0         0
         0         0         0         0         0         0         0         0
         0         0         0         0         0         0         0         0
         0         0         0         0         0         0         0         0
         0         0         0         0         0         0         0         0
         0         0         0         0         0         0         0         0
         0         0         0         0         0         0         0         0
         0         0         0         0         0         0         0         0
         0         0         0         0         0         0         0         0
         0         0         0         0         0         0         0         0
         0         0         0         0         0         0         0         0
         0         0         0         0         0         0         0         0
         0         0         0         0         0         0         0         0
         0         0         0         0         0         0         0         0
         0         0         0         0         0         0         0         0
         0         0         0         0         0         0         0         0
         0         0         0         0         0         0         0         0
         0         0         0         0         0         0         0         0
         0         0         0         0         0         0         0         0
         0         0         0         0         0         0         0         0
         0         0         0         0         0         0         0         0
         0         0         0         0         0         0         0         0
         0         0         0         0         0         0         0         0
         0         0         0         0         0         0         0         0
         0         0         0         0         0         0         0         0
         0         0         0         0         0         0         0         0
         0         0         0         0         0         0         0         0
         0         0         0         0         0         0         0         0
         0         0         0         0         0         0         0         0
         0         0         0         0         0         0         0         0
         0         0         0         0         0         0         0         0
         0         0         0         0         0         0         0         0
         0         0         0         0         0         0         0         0
         0         0         0         0         0         0         0         0
         0         0         0         0         0         0         0         0
         0         0         0         0         0         0         0         0
         0         0         0         0         0         0         0         0
         0         0         0         0         0         0         0         0
         0         0         0         0         0         0         0         0
         0         0         0         0         0         0         0         0
         0         0         0         0         0         0         0         0
         0         0         0         0         0         0         0         0
         0         0         0         0         0         0         0         0
         0         0         0         0         0         0         0         0
         0         0         0         0         0         0         0         0
         0         0         0         0         0         0         0         0
         0         0         0         0         0         0         0         0
         0         0         0         0         0         0         0         0
         0         0         0         0         0         0         0         0
         0         0         0         0         0         0         0         0
         0         0         0         0         0         0         0         0
         0         0         0         0         0         0         0         0
         0         0         0         0         0         0         0         0
         0         0         0         0         0         0         0         0
         0         0         0         0         0         0         0         0
         0         0         0         0         0         0         0         0
         0         0         0         0         0         0         0         0
         0         0         0         0         0         0         0         0
         0         0         0         0         0         0         0         0
         0         0         0         0         0         0         0         0
         0         0         0         0         0         0         0         0
         0         0         0         0         0         0         0         0
         0         0         0         0         0         0         0         0
         0         0         0         0         0         0         0         0
         0         0         0         0         0         0         0         0
         0         0         0         0         0         0         0         0
         0         0         0         0         0         0         0         0
         0         0         0         0         0         0         0         0
         0         0         0         0         0         0         0         0
         0         0         0         0         0         0         0         0
         0         0         0         0         0         0         0         0
         0         0         0         0         0         0         0         0
         0         0         0         0         0         0         0         0
         0         0         0         0         0         0         0         0
         0         0         0         0         0         0         0         0
         0         0         0         0         0         0         0         0
         0         0         0         0         0         0         0         0
         0         0         0         0         0         0         0         0
         0         0         0         0         0         0         0         0
         0         0         0         0         0         0         0         0
         0         0         0         0         0         0         0         0
         0         0         0         0         0         0         0         0
         0         0         0         0         0         0         0         0
         0         0         0         0         0         0         0         0
         0         0         0         0         0         0         0         0
         0         0         0         0         0         0         0         0
         0         0         0         0         0         0         0         0
         0         0         0         0         0         0         0         0
         0         0         0         0         0         0         0         0
         0         0         0         0         0         0         0         0
         0         0         0         0         0         0         0         0
         0         0         0         0         0         0         0         0
         0         0         0         0         0         0         0         0
         0         0         0         0         0         0         0         0
         0         0         0         0         0         0         0         0
         0         0         0         0         0         0         0         0
         0         0         0         0         0         0         0         0
         0         0         0         0         0         0         0         0
         0         0         0         0         0         0         0         0
         0         0         0         0         0         0         0         0
         0         0         0         0         0         0         0         0
         0         0         0         0         0         0         0         0
         0         0         0         0         0         0         0         0
         0         0         0         0         0         0         0         0
         0         0         0         0         0         0         0         0
         0         0         0         0         0         0         0         0
         0         0         0         0         0         0         0         0
         0         0         0         0         0         0         0         0
         0         0         0         0         0         0         0         0
         0         0         0         0         0         0         0         0
         0         0         0         0         0         0         0         0
         0         0         0         0         0         0         0         0
         0         0         0         0         0         0         0         0
         0         0         0         0         0         0         0         0
         0         0         0         0         0         0         0         0
         0         0         0         0         0         0         0         0
         0         0         0         0         0         0         0         0
         0         0         0         0         0         0         0         0
         0         0         0         0         0         0         0         0
         0         0         0         0         0         0         0         0
         0         0         0         0         0         0         0         0
         0         0         0         0         0         0         0         0
         0         0         0         0         0         0         0         0
         0         0         0         0         0         0         0         0
         0         0         0         0         0         0         0         0
         0         0         0         0         0         0         0         0
         0         0         0         0         0         0         0         0
         0         0         0         0         0         0         0         0
         0         0         0         0         0         0         0         0
         0         0         0         0         0         0         0         0
         0         0         0         0         0         0         0         0
         0         0         0         0         0         0         0         0
         0         0         0         0         0         0         0         0
         0         0         0         0         0         0         0         0
         0         0         0         0         0         0         0         0
         0         0         0         0         0         0         0         0
         0         0         0         0         0         0         0         0
         0         0         0         0         0         0         0         0
         0         0         0         0         0         0         0         0
         0         0         0         0         0         0         0         0
         0         0         0         0         0         0         0         0
         0         0         0         0         0         0         0         0
         0         0         0         0         0         0         0         0
         0         0         0         0         0         0         0         0
         0         0         0         0         0         0         0         0
         0         0         0         0         0         0         0         0
         0         0         0         0         0         0         0         0
         0         0         0         0         0         0         0         0
         0         0         0         0         0         0         0         0
         0         0         0         0         0         0         0         0
         0         0         0         0         0         0         0         0
         0         0         0         0         0         0         0         0
         0         0         0         0         0         0         0         0
         0         0         0         0         0         0         0         0
         0         0         0         0         0         0         0         0
         0         0         0         0         0         0         0         0
         0         0         0         0         0         0         0         0
         0         0         0         0         0         0         0         0
         0         0         0         0         0         0         0         0
         0         0         0         0         0         0         0         0
         0         0         0         0         0         0         0         0
         0         0         0         0         0         0         0         0
         0         0         0         0         0         0         0         0
         0         0         0         0         0         0         0         0
         0         0         0         0         0         0         0         0
         0         0         0         0         0         0         0         0
         0         0         0         0         0         0         0         0
         0         0         0         0         0         0         0         0
         0         0         0         0         0         0         0         0
         0         0         0         0         0         0         0         0
         0         0         0         0         0         0         0         0
         0         0         0         0         0         0         0         0
         0         0         0         0         0         0         0         0
         0         0         0         0         0         0         0         0
         0         0         0         0         0         0         0         0
         0         0         0         0         0         0         0         0
         0         0         0         0         0         0         0         0
         0         0         0         0         0         0         0         0
         0         0         0         0         0         0         0         0
         0         0         0         0         0         0         0         0
         0         0         0         0         0         0         0         0
         0         0         0         0         0         0         0         0
         0         0         0         0         0         0         0         0
         0         0         0         0         0         0         0         0
         0         0         0         0         0         0         0         0
         0         0         0         0         0         0         0         0
         0         0         0         0         0         0         0         0
         0         0         0         0         0         0         0         0
         0         0         0         0         0         0         0         0
         0         0         0         0         0         0         0         0
         0         0         0         0         0         0         0         0
         0         0         0         0         0         0         0         0
         0         0         0         0         0         0         0         0
         0         0         0         0         0         0         0         0
         0         0         0         0         0         0         0         0
         0         0         0         0         0         0         0         0
         0         0         0         0         0         0         0         0
         0         0         0         0         0         0         0         0
         0         0         0         0         0         0         0         0
         0         0         0         0         0         0         0         0
         0         0         0         0         0         0         0         0
         0         0         0         0         0         0         0         0
         0         0         0         0         0         0         0         0
         0         0         0         0         0         0         0         0
         0         0         0         0         0         0         0         0
         0         0         0         0         0         0         0         0
         0         0         0         0         0         0         0         0
         0         0         0         0         0         0         0         0
         0         0         0         0         0         0         0         0
         0         0         0         0         0         0         0         0
         0         0         0         0         0         0         0         0
         0         0         0         0         0         0         0         0
         0         0         0         0         0         0         0         0
         0         0         0         0         0         0         0         0
         0         0         0         0         0         0         0         0
         0         0         0         0         0         0         0         0
         0         0         0         0         0         0         0         0
         0         0         0         0         0         0         0         0
         0         0         0         0         0         0         0         0
         0         0         0         0         0         0         0         0
         0         0         0         0         0         0         0         0
         0         0         0         0         0         0         0         0
         0         0         0         0         0         0         0         0
         0         0         0         0         0         0         0         0
         0         0         0         0         0         0         0         0
         0         0         0         0         0         0         0         0
         0         0         0         0         0         0         0         0
         0         0         0         0         0         0         0         0
         0         0         0         0         0         0         0         0
         0         0         0         0         0         0         0         0
         0         0         0         0         0         0         0         0
         0         0         0         0         0         0         0         0
         0         0         0         0         0         0         0         0
         0         0         0         0         0         0         0         0
         0         0         0         0         0         0         0         0
         0         0         0         0         0         0         0         0
         0         0         0         0         0         0         0         0
         0         0         0         0         0         0         0         0
         0         0         0         0         0         0         0         0
         0         0         0         0         0         0         0         0
         0         0         0         0         0         0         0         0
         0         0         0         0         0         0         0         0
         0         0         0         0         0         0         0         0
         0         0         0         0         0         0         0         0
         0         0         0         0         0         0         0         0
         0         0         0         0         0         0         0         0
         0         0         0         0         0         0         0         0
         0         0         0         0         0         0         0         0
         0         0         0         0         0         0         0         0
         0         0         0         0         0         0         0         0
         0         0         0         0         0         0         0         0
         0         0         0         0         0         0         0         0
         0         0         0         0         0         0         0         0
         0         0         0         0         0         0         0         0
         0         0         0         0         0         0         0         0
         0         0         0         0         0         0         0         0
         0         0         0         0         0         0         0         0
         0         0         0         0         0         0         0         0
         0         0         0         0         0         0         0         0
         0         0         0         0         0         0         0         0
         0         0         0         0         0         0         0         0
         0         0         0         0         0         0         0         0
         0         0         0         0         0         0         0         0
         0         0         0         0         0         0         0         0
         0         0         0         0         0         0         0         0
         0         0         0         0         0         0         0         0
         0         0         0         0         0         0         0         0
         0         0         0         0         0         0         0         0
         0         0         0         0         0         0         0         0
         0         0         0         0         0         0         0         0
         0         0         0         0         0         0         0         0
         0         0         0         0         0         0         0         0
         0         0         0         0         0         0         0         0
         0         0         0         0         0         0         0         0
         0         0         0         0         0         0         0         0
         0         0         0         0         0         0         0         0
         0         0         0         0         0         0         0         0
         0         0         0         0         0         0         0         0
         0         0         0         0         0         0         0         0
         0         0         0         0         0         0         0         0
         0         0         0         0         0         0         0         0
         0         0         0         0         0         0         0         0
         0         0         0         0         0         0         0         0
         0         0         0         0         0         0         0         0
         0         0         0         0         0         0         0         0
         0         0         0         0         0         0         0         0
         0         0         0         0         0         0         0         0
         0         0         0         0         0         0         0         0
         0         0         0         0         0         0         0         0
         0         0         0         0         0         0         0         0
         0         0         0         0         0         0         0         0
         0         0         0         0         0         0         0         0
         0         0         0         0         0         0         0         0
         0         0         0         0         0         0         0         0
         0         0         0         0         0         0         0         0
         0         0         0         0         0         0         0         0
         0         0         0         0         0         0         0         0
         0         0         0         0         0         0         0         0
         0         0         0         0         0         0         0         0
         0         0         0         0         0         0         0         0
         0         0         0         0         0         0         0         0
         0         0         0         0         0         0         0         0
         0         0         0         0         0         0         0         0
         0         0         0         0         0         0         0         0
         0         0         0         0         0         0         0         0
         0         0         0         0         0         0         0         0
         0         0         0         0         0         0         0         0
         0         0         0         0         0         0         0         0
         0         0         0         0         0         0         0         0
         0         0         0         0         0         0         0         0
         0         0         0         0         0         0         0         0
         0         0         0         0         0         0         0         0
         0         0         0         0         0         0         0         0
         0         0         0         0         0         0         0         0
         0         0         0         0         0         0         0         0
         0         0         0         0         0         0         0         0
         0         0         0         0         0         0         0         0
         0         0         0         0         0         0         0         0
         0         0         0         0         0         0         0         0
         0         0         0         0         0         0         0         0
         0         0         0         0         0         0         0         0
         0         0         0         0         0         0         0         0
         0         0         0         0         0         0         0         0
         0         0         0         0         0         0         0         0
         0         0         0         0         0         0         0         0
         0         0         0         0         0         0         0         0
         0         0         0         0         0         0         0         0
         0         0         0         0         0         0         0         0
         0         0         0         0         0         0         0         0
         0         0         0         0         0         0         0         0
         0         0         0         0         0         0         0         0
         0         0         0         0         0         0         0         0
         0         0         0         0         0         0         0         0
         0         0         0         0         0         0         0         0
         0         0         0         0         0         0         0         0
         0         0         0         0         0         0         0         0
         0         0         0         0         0         0         0         0
         0         0         0         0         0         0         0         0
         0         0         0         0         0         0         0         0
         0         0         0         0         0         0         0         0
         0         0         0         0         0         0         0         0
         0         0         0         0         0         0         0         0
         0         0         0         0         0         0         0         0
         0         0         0         0         0         0         0         0
         0         0         0         0         0         0         0         0
         0         0         0         0         0         0         0         0
         0         0         0         0         0         0         0         0
         0         0         0         0         0         0         0         0
         0         0         0         0         0         0         0         0
         0         0         0         0         0         0         0         0
         0         0         0         0         0         0         0         0
         0         0         0         0         0         0         0         0
         0         0         0         0         0         0         0         0
         0         0         0         0         0         0         0         0
         0         0         0         0         0         0         0         0
         0         0         0         0         0         0         0         0
         0         0         0         0         0         0         0         0
         0         0         0         0         0         0         0         0
         0         0         0         0         0         0         0         0
         0         0         0         0         0         0         0         0
         0         0         0         0         0         0         0         0
         0         0         0         0         0         0         0         0
         0         0         0         0         0         0         0         0
         0         0         0         0         0         0         0         0
         0         0         0         0         0         0         0         0
         0         0         0         0         0         0         0         0
         0         0         0         0         0         0         0         0
         0         0         0         0         0         0         0         0
         0         0         0         0         0         0         0         0
         0         0         0         0         0         0         0         0
         0         0         0         0         0         0         0         0
         0         0         0         0         0         0         0         0
         0         0         0         0         0         0         0         0
         0         0         0         0         0         0         0         0
         0         0         0         0         0         0         0         0
         0         0         0         0         0         0         0         0
         0         0         0         0         0         0         0         0
         0         0         0         0         0         0         0         0
         0         0         0         0         0         0         0         0
         0         0         0         0         0         0         0         0
         0         0         0         0         0         0         0         0
         0         0         0         0         0         0         0         0
         0         0         0         0         0         0         0         0
         0         0         0         0         0         0         0         0
         0         0         0         0         0         0         0         0
         0         0         0         0         0         0         0         0
         0         0         0         0         0         0         0         0
         0         0         0         0         0         0         0         0
         0         0         0         0         0         0         0         0
         0         0         0         0         0         0         0         0
         0         0         0         0         0         0         0         0
         0         0         0         0         0         0         0         0
         0         0         0         0         0         0         0         0
         0         0         0         0         0         0         0         0
         0         0         0         0         0         0         0         0
         0         0         0         0         0         0         0         0
         0         0         0         0         0         0         0         0
         0         0         0         0         0         0         0         0
         0         0         0         0         0         0         0         0
         0         0         0         0         0         0         0         0
         0         0         0         0         0         0         0         0
         0         0         0         0         0         0         0         0
         0         0         0         0         0         0         0         0
         0         0         0         0         0         0         0         0
         0         0         0         0         0         0         0         0
         0         0         0         0         0         0         0         0
         0         0         0         0         0         0         0         0
         0         0         0         0         0         0         0         0
         0         0         0         0         0         0         0         0
         0         0         0         0         0         0         0         0
         0         0         0         0         0         0         0         0
         0         0         0         0         0         0         0         0
         0         0         0         0         0         0         0         0
         0         0         0         0         0         0         0         0
         0         0         0         0         0         0         0         0
         0         0         0         0         0         0         0         0
         0         0         0         0         0         0         0         0
         0         0         0         0         0         0         0         0
         0         0         0         0         0         0         0         0
         0         0         0         0         0         0         0         0
         0         0         0         0         0         0         0         0
         0         0         0         0         0         0         0         0
         0         0         0         0         0         0         0         0
         0         0         0         0         0         0         0         0
         0         0         0         0         0         0         0         0
         0         0         0         0         0         0         0         0
         0         0         0         0         0         0         0         0
         0         0         0         0         0         0         0         0
         0         0         0         0         0         0         0         0
         0         0         0         0         0         0         0         0
         0         0         0         0         0         0         0         0
         0         0         0         0         0         0         0         0
         0         0         0         0         0         0         0         0
         0         0         0         0         0         0         0         0
         0         0         0         0         0         0         0         0
         0         0         0         0         0         0         0         0
         0         0         0         0         0         0         0         0
         0         0         0         0         0         0         0         0
         0         0         0         0         0         0         0         0
         0         0         0         0         0         0         0         0
         0         0         0         0         0         0         0         0
         0         0         0         0         0         0         0         0
         0         0         0         0         0         0         0         0
         0         0         0         0         0         0         0         0
         0         0         0         0         0         0         0         0
         0         0         0         0         0         0         0         0
         0         0         0         0         0         0         0         0
         0         0         0         0         0         0         0         0
         0         0         0         0         0         0         0         0
         0         0         0         0         0         0         0         0
         0         0         0         0         0         0         0         0
         0         0         0         0         0         0         0         0
         0         0         0         0         0         0         0         0
         0         0         0         0         0         0         0         0
         0         0         0         0         0         0         0         0
         0         0         0         0         0         0         0         0
         0         0         0         0         0         0         0         0
         0         0         0         0         0         0         0         0
         0         0         0         0         0         0         0         0
         0         0         0         0         0         0         0         0
         0         0         0         0         0         0         0         0
         0         0         0         0         0         0         0         0
         0         0         0         0         0         0         0         0
         0         0         0         0         0         0         0         0
         0         0         0         0         0         0         0         0
         0         0         0         0         0         0         0         0
         0         0         0         0         0         0         0         0
         0         0         0         0         0         0         0         0
         0         0         0         0         0         0         0         0
         0         0         0         0         0         0         0         0
         0         0         0         0         0         0         0         0
         0         0         0         0         0         0         0         0
         0         0         0         0         0         0         0         0
         0         0         0         0         0         0         0         0
         0         0         0         0         0         0         0         0
         0         0         0         0         0         0         0         0
         0         0         0         0         0         0         0         0
         0         0         0         0         0         0         0         0
         0         0         0         0         0         0         0         0
         0         0         0         0         0         0         0         0
         0         0         0         0         0         0         0         0
         0         0         0         0         0         0         0         0
         0         0         0         0         0         0         0         0
         0         0         0         0         0         0         0         0
         0         0         0         0         0         0         0         0
         0         0         0         0         0         0         0         0
         0         0         0         0         0         0         0         0
         0         0         0         0         0         0         0         0
         0         0         0         0         0         0         0         0
         0         0         0         0         0         0         0         0
         0         0         0         0         0         0         0         0
         0         0         0         0         0         0         0         0
         0         0         0         0         0         0         0         0
         0         0         0         0         0         0         0         0
         0         0         0         0         0         0         0         0
         0         0         0         0         0         0         0         0
         0         0         0         0         0         0         0         0
         0         0         0         0         0         0         0         0
         0         0         0         0         0         0         0         0
         0         0         0         0         0         0         0         0
         0         0         0         0         0         0         0         0
         0         0         0         0         0         0         0         0
         0         0         0         0         0         0         0         0
         0         0         0         0         0         0         0         0
         0         0         0         0         0         0         0         0
         0         0         0         0         0         0         0         0
         0         0         0         0         0         0         0         0
         0         0         0         0         0         0         0         0
         0         0         0         0         0         0         0         0
         0         0         0         0         0         0         0         0
         0         0         0         0         0         0         0         0
         0         0         0         0         0         0         0         0
         0         0         0         0         0         0         0         0
         0         0         0         0         0         0         0         0
         0         0         0         0         0         0         0         0
         0         0         0         0         0         0         0         0
         0         0         0         0         0         0         0         0
         0         0         0         0         0         0         0         0
         0         0         0         0         0         0         0         0
         0         0         0         0         0         0         0         0
         0         0         0         0         0         0         0         0
         0         0         0         0         0         0         0         0
         0         0         0         0         0         0         0         0
         0         0         0         0         0         0         0         0
         0         0         0         0         0         0         0         0
         0         0         0         0         0         0         0         0
         0         0         0         0         0         0         0         0
         0         0         0         0         0         0         0         0
         0         0         0         0         0         0         0         0
         0         0         0         0         0         0         0         0
         0         0         0         0         0         0         0         0
         0         0         0         0         0         0         0         0
         0         0         0         0         0         0         0         0
         0         0         0         0         0         0         0         0
         0         0         0         0         0         0         0         0
         0         0         0         0         0         0         0         0
         0         0         0         0         0         0         0         0
         0         0         0         0         0         0         0         0
         0         0         0         0         0         0         0         0
         0         0         0         0         0         0         0         0
         0         0         0         0         0         0         0         0
         0         0         0         0         0         0         0         0
         0         0         0         0         0         0         0         0
         0         0         0         0         0         0         0         0
         0         0         0         0         0         0         0         0
         0         0         0         0         0         0         0         0
         0         0         0         0         0         0         0         0
         0         0         0         0         0         0         0         0
         0         0         0         0         0         0         0         0
         0         0         0         0         0         0         0         0
         0         0         0         0         0         0         0         0
         0         0         0         0         0         0         0         0
         0         0         0         0         0         0         0         0
         0         0         0         0         0         0         0         0
         0         0         0         0         0         0         0         0
         0         0         0         0         0         0         0         0
         0         0         0         0         0         0         0         0
         0         0         0         0         0         0         0         0
         0         0         0         0         0         0         0         0
         0         0         0         0         0         0         0         0
         0         0         0         0         0         0         0         0
         0         0         0         0         0         0         0         0
         0         0         0         0         0         0         0         0
         0         0         0         0         0         0         0         0
         0         0         0         0         0         0         0         0
         0         0         0         0         0         0         0         0
         0         0         0         0         0         0         0         0
         0         0         0         0         0         0         0         0
         0         0         0         0         0         0         0         0
         0         0         0         0         0         0         0         0
         0         0         0         0         0         0         0         0
         0         0         0         0         0         0         0         0
         0         0         0         0         0         0         0         0
         0         0         0         0         0         0         0         0
         0         0         0         0         0         0         0         0
         0         0         0         0         0         0         0         0
         0         0         0         0         0         0         0         0
         0         0         0         0         0         0         0         0
         0         0         0         0         0         0         0         0
         0         0         0         0         0         0         0         0
         0         0         0         0         0         0         0         0
         0         0         0         0         0         0         0         0
         0         0         0         0         0         0         0         0
         0         0         0         0         0         0         0         0
         0         0         0         0         0         0         0         0
         0         0         0         0         0         0         0         0
         0         0         0         0         0         0         0         0
         0         0         0         0         0         0         0         0
         0         0         0         0         0         0         0         0
         0         0         0         0         0         0         0         0
         0         0         0         0         0         0         0         0
         0         0         0         0         0         0         0         0
         0         0         0         0         0         0         0         0
         0         0         0         0         0         0         0         0
         0         0         0         0         0         0         0         0
         0         0         0         0         0         0         0         0
         0         0         0         0         0         0         0         0
         0         0         0         0         0         0         0         0
         0         0         0         0         0         0         0         0
         0         0         0         0         0         0         0         0
         0         0         0         0         0         0         0         0
         0         0         0         0

      4878         0 !NGRP NST2
         0         2         0         7         1         0         9         1         0
        13         1         0        17         1         0        19         1         0
        23         1         0        26         1         0        28         1         0
        32         1         0        36         1         0        38         1         0
        42         1         0        46         1         0        48         1         0
        52         1         0        54         1         0        58         1         0
        62         1         0        64         1         0        68         1         0
        70         1         0        74         1         0        78         1         0
        80         1         0        84         1         0        86         1         0
        90         1         0        94         1         0        96         1         0
       100         1         0       103         1         0       118         1         0
       120         1         0       124         1         0       127         1         0
       129         1         0       133         1         0       137         1         0
       139         1         0       143         1         0       146         1         0
       161         1         0       163         1         0       167         1         0
       170         1         0       172         1         0       176         1         0
       180         1         0       182         1         0       186         1         0
       189         1         0       204         1         0       206         1         0
       210         1         0       213         1         0       215         1         0
       219         1         0       223         1         0       225         1         0
       229         1         0       232         1         0       247         2         0
       250         2         0       257         1         0       259         1         0
       263         1         0       267         1         0       269         1         0
       273         1         0       276         1         0       278         1         0
       282         1         0       286         1         0       288         1         0
       292         1         0       296         1         0       298         1         0
       302         1         0       304         1         0       308         1         0
       312         1         0       314         1         0       318         1         0
       320         1         0       324         1         0       328         1         0
       330         1         0       334         1         0       336         1         0
       340         1         0       344         1         0       346         1         0
       350         1         0       353         1         0       368         1         0
       370         1         0       374         1         0       377         1         0
       379         1         0       383         1         0       387         1         0
       389         1         0       393         1         0       396         1         0
       411         1         0       413         1         0       417         1         0
       420         1         0       422         1         0       426         1         0
       430         1         0       432         1         0       436         1         0
       439         1         0       454         1         0       456         1         0
       460         1         0       463         1         0       465         1         0
       469         1         0       473         1         0       475         1         0
       479         1         0       482         1         0       497         2         0
       500         2         0       516         2         0       527         1         0
       535         1         0       544         1         0       547         1         0
       550         1         0       553         1         0       556         1         0
       559         1         0       562         1         0       564         1         0
       566         1         0       569         1         0       572         1         0
       575         1         0       578         1         0       581         1         0
       584         1         0       587         1         0       591         1         0
       594         1         0       597         1         0       600         1         0
       603         1         0       606         1         0       609         1         0
       611         1         0       613         1         0       616         1         0
       619         1         0       622         1         0       625         1         0
       628         1         0       631         1         0       634         1         0
       638         2         0       654         2         0       665         1         0
       673         1         0       682         1         0       685         1         0
       688         1         0       691         1         0       694         1         0
       697         1         0       700         1         0       702         1         0
       704         1         0       707         1         0       710         1         0
       713         1         0       716         1         0       719         1         0
       722         1         0       725         1         0       729         1         0
       732         1         0       735         1         0       738         1         0
       741         1         0       744         1         0       747         1         0
       749         1         0       751         1         0       754         1         0
       757         1         0       760         1         0       763         1         0
       766         1         0       769         1         0       772         1         0
       776         2         0       792         2         0       803         1         0
       811         1         0       820         1         0       823         1         0
       826         1         0       829         1         0       832         1         0
       835         1         0       838         1         0       840         1         0
       842         1         0       845         1         0       848         1         0
       851         1         0       854         1         0       857         1         0
       860         1         0       863         1         0       867         1         0
       870         1         0       873         1         0       876         1         0
       879         1         0       882         1         0       885         1         0
       887         1         0       889         1         0       892         1         0
       895         1         0       898         1         0       901         1         0
       904         1         0       907         1         0       910         1         0
       914         2         0       930         2         0       941         1         0
       949         1         0       958         1         0       961         1         0
       964         1         0       967         1         0       970         1         0
       973         1         0       976         1         0       978         1         0
       980         1         0       983         1         0       986         1         0
       989         1         0       992         1         0       995         1         0
       998         1         0      1001         1         0      1005         1         0
      1008         1         0      1011         1         0      1014         1         0
      1017         1         0      1020         1         0      1023         1         0
      1025         1         0      1027         1         0      1030         1         0
      1033         1         0      1036         1         0      1039         1         0
      1042         1         0      1045         1         0      1048         1         0
      1052         2         0      1068         2         0      1079         1         0
      1087         1         0      1096         1         0      1099         1         0
      1102         1         0      1105         1         0      1108         1         0
      1111         1         0      1114         1         0      1116         1         0
      1118         1         0      1121         1         0      1124         1         0
      1127         1         0      1130         1         0      1133         1         0
      1136         1         0      1139         1         0      1143         1         0
      1146         1         0      1149         1         0      1152         1         0
      1155         1         0      1158         1         0      1161         1         0
      1163         1         0      1165         1         0      1168         1         0
      1171         1         0      1174         1         0      1177         1         0
      1180         1         0      1183         1         0      1186         1         0
      1190         2         0      1206         2         0      1217         1         0
      1225         1         0      1234         1         0      1237         1         0
      1240         1         0      1243         1         0      1246         1         0
      1249         1         0      1252         1         0      1254         1         0
      1256         1         0      1259         1         0      1262         1         0
      1265         1         0      1268         1         0      1271         1         0
      1274         1         0      1277         1         0      1281         1         0
      1284         1         0      1287         1         0      1290         1         0
      1293         1         0      1296         1         0      1299         1         0
      1301         1         0      1303         1         0      1306         1         0
      1309         1         0      1312         1         0      1315         1         0
      1318         1         0      1321         1         0      1324         1         0
      1328         2         0      1344         2         0      1355         1         0
      1363         1         0      1372         1         0      1375         1         0
      1378         1         0      1381         1         0      1384         1         0
      1387         1         0      1390         1         0      1392         1         0
      1394         1         0      1397         1         0      1400         1         0
      1403         1         0      1406         1         0      1409         1         0
      1412         1         0      1415         1         0      1419         1         0
      1422         1         0      1425         1         0      1428         1         0
      1431         1         0      1434         1         0      1437         1         0
      1439         1         0      1441         1         0      1444         1         0
      1447         1         0      1450         1         0      1453         1         0
      1456         1         0      1459         1         0      1462         1         0
      1466         2         0      1482         2         0      1493         1         0
      1501         1         0      1510         1         0      1513         1         0
      1516         1         0      1519         1         0      1522         1         0
      1525         1         0      1528         1         0      1530         1         0
      1532         1         0      1535         1         0      1538         1         0
      1541         1         0      1544         1         0      1547         1         0
      1550         1         0      1553         1         0      1557         1         0
      1560         1         0      1563         1         0      1566         1         0
      1569         1         0      1572         1         0      1575         1         0
      1577         1         0      1579         1         0      1582         1         0
      1585         1         0      1588         1         0      1591         1         0
      1594         1         0      1597         1         0      1600         1         0
      1604         2         0      1620         2         0      1631         1         0
      1639         1         0      1648         1         0      1651         1         0
      1654         1         0      1657         1         0      1660         1         0
      1663         1         0      1666         1         0      1668         1         0
      1670         1         0      1673         1         0      1676         1         0
      1679         1         0      1682         1         0      1685         1         0
      1688         1         0      1691         1         0      1695         1         0
      1698         1         0      1701         1         0      1704         1         0
      1707         1         0      1710         1         0      1713         1         0
      1715         1         0      1717         1         0      1720         1         0
      1723         1         0      1726         1         0      1729         1         0
      1732         1         0      1735         1         0      1738         1         0
      1742         2         0      1758         2         0      1769         1         0
      1777         1         0      1786         1         0      1789         1         0
      1792         1         0      1795         1         0      1798         1         0
      1801         1         0      1804         1         0      1806         1         0
      1808         1         0      1811         1         0      1814         1         0
      1817         1         0      1820         1         0      1823         1         0
      1826         1         0      1829         1         0      1833         1         0
      1836         1         0      1839         1         0      1842         1         0
      1845         1         0      1848         1         0      1851         1         0
      1853         1         0      1855         1         0      1858         1         0
      1861         1         0      1864         1         0      1867         1         0
      1870         1         0      1873         1         0      1876         1         0
      1880         2         0      1896         2         0      1907         1         0
      1915         1         0      1924         1         0      1927         1         0
      1930         1         0      1933         1         0      1936         1         0
      1939         1         0      1942         1         0      1944         1         0
      1946         1         0      1949         1         0      1952         1         0
      1955         1         0      1958         1         0      1961         1         0
      1964         1         0      1967         1         0      1971         1         0
      1974         1         0      1977         1         0      1980         1         0
      1983         1         0      1986         1         0      1989         1         0
      1991         1         0      1993         1         0      1996         1         0
      1999         1         0      2002         1         0      2005         1         0
      2008         1         0      2011         1         0      2014         1         0
      2018         2         0      2034         2         0      2045         1         0
      2053         1         0      2062         1         0      2065         1         0
      2068         1         0      2071         1         0      2074         1         0
      2077         1         0      2080         1         0      2082         1         0
      2084         1         0      2087         1         0      2090         1         0
      2093         1         0      2096         1         0      2099         1         0
      2102         1         0      2105         1         0      2109         1         0
      2112         1         0      2115         1         0      2118         1         0
      2121         1         0      2124         1         0      2127         1         0
      2129         1         0      2131         1         0      2134         1         0
      2137         1         0      2140         1         0      2143         1         0
      2146         1         0      2149         1         0      2152         1         0
      2156         2         0      2172         2         0      2183         1         0
      2191         1         0      2200         1         0      2203         1         0
      2206         1         0      2209         1         0      2212         1         0
      2215         1         0      2218         1         0      2220         1         0
      2222         1         0      2225         1         0      2228         1         0
      2231         1         0      2234         1         0      2237         1         0
      2240         1         0      2243         1         0      2247         1         0
      2250         1         0      2253         1         0      2256         1         0
      2259         1         0      2262         1         0      2265         1         0
      2267         1         0      2269         1         0      2272         1         0
      2275         1         0      2278         1         0      2281         1         0
      2284         1         0      2287         1         0      2290         1         0
      2294         2         0      2310         2         0      2321         1         0
      2329         1         0      2338         1         0      2341         1         0
      2344         1         0      2347         1         0      2350         1         0
      2353         1         0      2356         1         0      2358         1         0
      2360         1         0      2363         1         0      2366         1         0
      2369         1         0      2372         1         0      2375         1         0
      2378         1         0      2381         1         0      2385         1         0
      2388         1         0      2391         1         0      2394         1         0
      2397         1         0      2400         1         0      2403         1         0
      2405         1         0      2407         1         0      2410         1         0
      2413         1         0      2416         1         0      2419         1         0
      2422         1         0      2425         1         0      2428         1         0
      2432         2         0      2448         2         0      2459         1         0
      2467         1         0      2476         1         0      2479         1         0
      2482         1         0      2485         1         0      2488         1         0
      2491         1         0      2494         1         0      2496         1         0
      2498         1         0      2501         1         0      2504         1         0
      2507         1         0      2510         1         0      2513         1         0
      2516         1         0      2519         1         0      2523         1         0
      2526         1         0      2529         1         0      2532         1         0
      2535         1         0      2538         1         0      2541         1         0
      2543         1         0      2545         1         0      2548         1         0
      2551         1         0      2554         1         0      2557         1         0
      2560         1         0      2563         1         0      2566         1         0
      2570         2         0      2586         2         0      2597         1         0
      2605         1         0      2614         1         0      2617         1         0
      2620         1         0      2623         1         0      2626         1         0
      2629         1         0      2632         1         0      2634         1         0
      2636         1         0      2639         1         0      2642         1         0
      2645         1         0      2648         1         0      2651         1         0
      2654         1         0      2657         1         0      2661         1         0
      2664         1         0      2667         1         0      2670         1         0
      2673         1         0      2676         1         0      2679         1         0
      2681         1         0      2683         1         0      2686         1         0
      2689         1         0      2692         1         0      2695         1         0
      2698         1         0      2701         1         0      2704         1         0
      2708         2         0      2724         2         0      2735         1         0
      2743         1         0      2752         1         0      2755         1         0
      2758         1         0      2761         1         0      2764         1         0
      2767         1         0      2770         1         0      2772         1         0
      2774         1         0      2777         1         0      2780         1         0
      2783         1         0      2786         1         0      2789         1         0
      2792         1         0      2795         1         0      2799         1         0
      2802         1         0      2805         1         0      2808         1         0
      2811         1         0      2814         1         0      2817         1         0
      2819         1         0      2821         1         0      2824         1         0
      2827         1         0      2830         1         0      2833         1         0
      2836         1         0      2839         1         0      2842         1         0
      2846         2         0      2862         2         0      2873         1         0
      2881         1         0      2890         1         0      2893         1         0
      2896         1         0      2899         1         0      2902         1         0
      2905         1         0      2908         1         0      2910         1         0
      2912         1         0      2915         1         0      2918         1         0
      2921         1         0      2924         1         0      2927         1         0
      2930         1         0      2933         1         0      2937         1         0
      2940         1         0      2943         1         0      2946         1         0
      2949         1         0      2952         1         0      2955         1         0
      2957         1         0      2959         1         0      2962         1         0
      2965         1         0      2968         1         0      2971         1         0
      2974         1         0      2977         1         0      2980         1         0
      2984         2         0      3000         2         0      3011         1         0
      3019         1         0      3028         1         0      3031         1         0
      3034         1         0      3037         1         0      3040         1         0
      3043         1         0      3046         1         0      3048         1         0
      3050         1         0      3053         1         0      3056         1         0
      3059         1         0      3062         1         0      3065         1         0
      3068         1         0      3071         1         0      3075         1         0
      3078         1         0      3081         1         0      3084         1         0
      3087         1         0      3090         1         0      3093         1         0
      3095         1         0      3097         1         0      3100         1         0
      3103         1         0      3106         1         0      3109         1         0
      3112         1         0      3115         1         0      3118         1         0
      3122         2         0      3138         2         0      3149         1         0
      3157         1         0      3166         1         0      3169         1         0
      3172         1         0      3175         1         0      3178         1         0
      3181         1         0      3184         1         0      3186         1         0
      3188         1         0      3191         1         0      3194         1         0
      3197         1         0      3200         1         0      3203         1         0
      3206         1         0      3209         1         0      3213         1         0
      3216         1         0      3219         1         0      3222         1         0
      3225         1         0      3228         1         0      3231         1         0
      3233         1         0      3235         1         0      3238         1         0
      3241         1         0      3244         1         0      3247         1         0
      3250         1         0      3253         1         0      3256         1         0
      3260         2         0      3276         2         0      3287         1         0
      3295         1         0      3304         1         0      3307         1         0
      3310         1         0      3313         1         0      3316         1         0
      3319         1         0      3322         1         0      3324         1         0
      3326         1         0      3329         1         0      3332         1         0
      3335         1         0      3338         1         0      3341         1         0
      3344         1         0      3347         1         0      3351         1         0
      3354         1         0      3357         1         0      3360         1         0
      3363         1         0      3366         1         0      3369         1         0
      3371         1         0      3373         1         0      3376         1         0
      3379         1         0      3382         1         0      3385         1         0
      3388         1         0      3391         1         0      3394         1         0
      3398         2         0      3414         2         0      3425         1         0
      3433         1         0      3442         1         0      3445         1         0
      3448         1         0      3451         1         0      3454         1         0
      3457         1         0      3460         1         0      3462         1         0
      3464         1         0      3467         1         0      3470         1         0
      3473         1         0      3476         1         0      3479         1         0
      3482         1         0      3485         1         0      3489         1         0
      3492         1         0      3495         1         0      3498         1         0
      3501         1         0      3504         1         0      3507         1         0
      3509         1         0      3511         1         0      3514         1         0
      3517         1         0      3520         1         0      3523         1         0
      3526         1         0      3529         1         0      3532         1         0
      3536         2         0      3552         2         0      3563         1         0
      3571         1         0      3580         1         0      3583         1         0
      3586         1         0      3589         1         0      3592         1         0
      3595         1         0      3598         1         0      3600         1         0
      3602         1         0      3605         1         0      3608         1         0
      3611         1         0      3614         1         0      3617         1         0
      3620         1         0      3623         1         0      3627         1         0
      3630         1         0      3633         1         0      3636         1         0
      3639         1         0      3642         1         0      3645         1         0
      3647         1         0      3649         1         0      3652         1         0
      3655         1         0      3658         1         0      3661         1         0
      3664         1         0      3667         1         0      3670         1         0
      3674         2         0      3690         2         0      3701         1         0
      3709         1         0      3718         1         0      3721         1         0
      3724         1         0      3727         1         0      3730         1         0
      3733         1         0      3736         1         0      3738         1         0
      3740         1         0      3743         1         0      3746         1         0
      3749         1         0      3752         1         0      3755         1         0
      3758         1         0      3761         1         0      3765         1         0
      3768         1         0      3771         1         0      3774         1         0
      3777         1         0      3780         1         0      3783         1         0
      3785         1         0      3787         1         0      3790         1         0
      3793         1         0      3796         1         0      3799         1         0
      3802         1         0      3805         1         0      3808         1         0
      3812         2         0      3828         2         0      3839         1         0
      3847         1         0      3856         1         0      3859         1         0
      3862         1         0      3865         1         0      3868         1         0
      3871         1         0      3874         1         0      3876         1         0
      3878         1         0      3881         1         0      3884         1         0
      3887         1         0      3890         1         0      3893         1         0
      3896         1         0      3899         1         0      3903         1         0
      3906         1         0      3909         1         0      3912         1         0
      3915         1         0      3918         1         0      3921         1         0
      3923         1         0      3925         1         0      3928         1         0
      3931         1         0      3934         1         0      3937         1         0
      3940         1         0      3943         1         0      3946         1         0
      3950         2         0      3966         2         0      3977         1         0
      3985         1         0      3994         1         0      3997         1         0
      4000         1         0      4003         1         0      4006         1         0
      4009         1         0      4012         1         0      4014         1         0
      4016         1         0      4019         1         0      4022         1         0
      4025         1         0      4028         1         0      4031         1         0
      4034         1         0      4037         1         0      4041         1         0
      4044         1         0      4047         1         0      4050         1         0
      4053         1         0      4056         1         0      4059         1         0
      4061         1         0      4063         1         0      4066         1         0
      4069         1         0      4072         1         0      4075         1         0
      4078         1         0      4081         1         0      4084         1         0
      4088         2         0      4104         2         0      4115         1         0
      4123         1         0      4132         1         0      4135         1         0
      4138         1         0      4141         1         0      4144         1         0
      4147         1         0      4150         1         0      4152         1         0
      4154         1         0      4157         1         0      4160         1         0
      4163         1         0      4166         1         0      4169         1         0
      4172         1         0      4175         1         0      4179         1         0
      4182         1         0      4185         1         0      4188         1         0
      4191         1         0      4194         1         0      4197         1         0
      4199         1         0      4201         1         0      4204         1         0
      4207         1         0      4210         1         0      4213         1         0
      4216         1         0      4219         1         0      4222         1         0
      4226         2         0      4242         2         0      4253         1         0
      4261         1         0      4270         1         0      4273         1         0
      4276         1         0      4279         1         0      4282         1         0
      4285         1         0      4288         1         0      4290         1         0
      4292         1         0      4295         1         0      4298         1         0
      4301         1         0      4304         1         0      4307         1         0
      4310         1         0      4313         1         0      4317         1         0
      4320         1         0      4323         1         0      4326         1         0
      4329         1         0      4332         1         0      4335         1         0
      4337         1         0      4339         1         0      4342         1         0
      4345         1         0      4348         1         0      4351         1         0
      4354         1         0      4357         1         0      4360         1         0
      4364         2         0      4380         2         0      4391         1         0
      4399         1         0      4408         1         0      4411         1         0
      4414         1         0      4417         1         0      4420         1         0
      4423         1         0      4426         1         0      4428         1         0
      4430         1         0      4433         1         0      4436         1         0
      4439         1         0      4442         1         0      4445         1         0
      4448         1         0      4451         1         0      4455         1         0
      4458         1         0      4461         1         0      4464         1         0
      4467         1         0      4470         1         0      4473         1         0
      4475         1         0      4477         1         0      4480         1         0
      4483         1         0      4486         1         0      4489         1         0
      4492         1         0      4495         1         0      4498         1         0
      4502         2         0      4518         2         0      4529         1         0
      4537         1         0      4546         1         0      4549         1         0
      4552         1         0      4555         1         0      4558         1         0
      4561         1         0      4564         1         0      4566         1         0
      4568         1         0      4571         1         0      4574         1         0
      4577         1         0      4580         1         0      4583         1         0
      4586         1         0      4589         1         0      4593         1         0
      4596         1         0      4599         1         0      4602         1         0
      4605         1         0      4608         1         0      4611         1         0
      4613         1         0      4615         1         0      4618         1         0
      4621         1         0      4624         1         0      4627         1         0
      4630         1         0      4633         1         0      4636         1         0
      4640         2         0      4656         2         0      4667         1         0
      4675         1         0      4684         1         0      4687         1         0
      4690         1         0      4693         1         0      4696         1         0
      4699         1         0      4702         1         0      4704         1         0
      4706         1         0      4709         1         0      4712         1         0
      4715         1         0      4718         1         0      4721         1         0
      4724         1         0      4727         1         0      4731         1         0
      4734         1         0      4737         1         0      4740         1         0
      4743         1         0      4746         1         0      4749         1         0
      4751         1         0      4753         1         0      4756         1         0
      4759         1         0      4762         1         0      4765         1         0
      4768         1         0      4771         1         0      4774         1         0
      4778         2         0      4794         2         0      4805         1         0
      4813         1         0      4822         1         0      4825         1         0
      4828         1         0      4831         1         0      4834         1         0
      4837         1         0      4840         1         0      4842         1         0
      4844         1         0      4847         1         0      4850         1         0
      4853         1         0      4856         1         0      4859         1         0
      4862         1         0      4865         1         0      4869         1         0
      4872         1         0      4875         1         0      4878         1         0
      4881         1         0      4884         1         0      4887         1         0
      4889         1         0      4891         1         0      4894         1         0
      4897         1         0      4900         1         0      4903         1         0
      4906         1         0      4909         1         0      4912         1         0
      4916         2         0      4932         2         0      4943         1         0
      4951         1         0      4960         1         0      4963         1         0
      4966         1         0      4969         1         0      4972         1         0
      4975         1         0      4978         1         0      4980         1         0
      4982         1         0      4985         1         0      4988         1         0
      4991         1         0      4994         1         0      4997         1         0
      5000         1         0      5003         1         0      5007         1         0
      5010         1         0      5013         1         0      5016         1         0
      5019         1         0      5022         1         0      5025         1         0
      5027         1         0      5029         1         0      5032         1         0
      5035         1         0      5038         1         0      5041         1         0
      5044         1         0      5047         1         0      5050         1         0
      5054         2         0      5070         2         0      5081         1         0
      5089         1         0      5098         1         0      5101         1         0
      5104         1         0      5107         1         0      5110         1         0
      5113         1         0      5116         1         0      5118         1         0
      5120         1         0      5123         1         0      5126         1         0
      5129         1         0      5132         1         0      5135         1         0
      5138         1         0      5141         1         0      5145         1         0
      5148         1         0      5151         1         0      5154         1         0
      5157         1         0      5160         1         0      5163         1         0
      5165         1         0      5167         1         0      5170         1         0
      5173         1         0      5176         1         0      5179         1         0
      5182         1         0      5185         1         0      5188         1         0
      5192         2         0      5208         2         0      5219         1         0
      5227         1         0      5236         1         0      5239         1         0
      5242         1         0      5245         1         0      5248         1         0
      5251         1         0      5254         1         0      5256         1         0
      5258         1         0      5261         1         0      5264         1         0
      5267         1         0      5270         1         0      5273         1         0
      5276         1         0      5279         1         0      5283         1         0
      5286         1         0      5289         1         0      5292         1         0
      5295         1         0      5298         1         0      5301         1         0
      5303         1         0      5305         1         0      5308         1         0
      5311         1         0      5314         1         0      5317         1         0
      5320         1         0      5323         1         0      5326         1         0
      5330         2         0      5346         2         0      5357         1         0
      5365         1         0      5374         1         0      5377         1         0
      5380         1         0      5383         1         0      5386         1         0
      5389         1         0      5392         1         0      5394         1         0
      5396         1         0      5399         1         0      5402         1         0
      5405         1         0      5408         1         0      5411         1         0
      5414         1         0      5417         1         0      5421         1         0
      5424         1         0      5427         1         0      5430         1         0
      5433         1         0      5436         1         0      5439         1         0
      5441         1         0      5443         1         0      5446         1         0
      5449         1         0      5452         1         0      5455         1         0
      5458         1         0      5461         1         0      5464         1         0
      5468         2         0      5484         2         0      5495         1         0
      5503         1         0      5512         1         0      5515         1         0
      5518         1         0      5521         1         0      5524         1         0
      5527         1         0      5530         1         0      5532         1         0
      5534         1         0      5537         1         0      5540         1         0
      5543         1         0      5546         1         0      5549         1         0
      5552         1         0      5555         1         0      5559         1         0
      5562         1         0      5565         1         0      5568         1         0
      5571         1         0      5574         1         0      5577         1         0
      5579         1         0      5581         1         0      5584         1         0
      5587         1         0      5590         1         0      5593         1         0
      5596         1         0      5599         1         0      5602         1         0
      5606         2         0      5622         2         0      5633         1         0
      5641         1         0      5650         1         0      5653         1         0
      5656         1         0      5659         1         0      5662         1         0
      5665         1         0      5668         1         0      5670         1         0
      5672         1         0      5675         1         0      5678         1         0
      5681         1         0      5684         1         0      5687         1         0
      5690         1         0      5693         1         0      5697         1         0
      5700         1         0      5703         1         0      5706         1         0
      5709         1         0      5712         1         0      5715         1         0
      5717         1         0      5719         1         0      5722         1         0
      5725         1         0      5728         1         0      5731         1         0
      5734         1         0      5737         1         0      5740         1         0
      5744         2         0      5760         2         0      5771         1         0
      5779         1         0      5788         1         0      5791         1         0
      5794         1         0      5797         1         0      5800         1         0
      5803         1         0      5806         1         0      5808         1         0
      5810         1         0      5813         1         0      5816         1         0
      5819         1         0      5822         1         0      5825         1         0
      5828         1         0      5831         1         0      5835         1         0
      5838         1         0      5841         1         0      5844         1         0
      5847         1         0      5850         1         0      5853         1         0
      5855         1         0      5857         1         0      5860         1         0
      5863         1         0      5866         1         0      5869         1         0
      5872         1         0      5875         1         0      5878         1         0
      5882         2         0      5898         2         0      5909         1         0
      5917         1         0      5926         1         0      5929         1         0
      5932         1         0      5935         1         0      5938         1         0
      5941         1         0      5944         1         0      5946         1         0
      5948         1         0      5951         1         0      5954         1         0
      5957         1         0      5960         1         0      5963         1         0
      5966         1         0      5969         1         0      5973         1         0
      5976         1         0      5979         1         0      5982         1         0
      5985         1         0      5988         1         0      5991         1         0
      5993         1         0      5995         1         0      5998         1         0
      6001         1         0      6004         1         0      6007         1         0
      6010         1         0      6013         1         0      6016         1         0
      6020         2         0      6036         2         0      6047         1         0
      6055         1         0      6064         1         0      6067         1         0
      6070         1         0      6073         1         0      6076         1         0
      6079         1         0      6082         1         0      6084         1         0
      6086         1         0      6089         1         0      6092         1         0
      6095         1         0      6098         1         0      6101         1         0
      6104         1         0      6107         1         0      6111         1         0
      6114         1         0      6117         1         0      6120         1         0
      6123         1         0      6126         1         0      6129         1         0
      6131         1         0      6133         1         0      6136         1         0
      6139         1         0      6142         1         0      6145         1         0
      6148         1         0      6151         1         0      6154         1         0
      6158         2         0      6174         2         0      6185         1         0
      6193         1         0      6202         1         0      6205         1         0
      6208         1         0      6211         1         0      6214         1         0
      6217         1         0      6220         1         0      6222         1         0
      6224         1         0      6227         1         0      6230         1         0
      6233         1         0      6236         1         0      6239         1         0
      6242         1         0      6245         1         0      6249         1         0
      6252         1         0      6255         1         0      6258         1         0
      6261         1         0      6264         1         0      6267         1         0
      6269         1         0      6271         1         0      6274         1         0
      6277         1         0      6280         1         0      6283         1         0
      6286         1         0      6289         1         0      6292         1         0
      6296         2         0      6312         2         0      6323         1         0
      6331         1         0      6340         1         0      6343         1         0
      6346         1         0      6349         1         0      6352         1         0
      6355         1         0      6358         1         0      6360         1         0
      6362         1         0      6365         1         0      6368         1         0
      6371         1         0      6374         1         0      6377         1         0
      6380         1         0      6383         1         0      6387         1         0
      6390         1         0      6393         1         0      6396         1         0
      6399         1         0      6402         1         0      6405         1         0
      6407         1         0      6409         1         0      6412         1         0
      6415         1         0      6418         1         0      6421         1         0
      6424         1         0      6427         1         0      6430         1         0
      6434         2         0      6450         2         0      6461         1         0
      6469         1         0      6478         1         0      6481         1         0
      6484         1         0      6487         1         0      6490         1         0
      6493         1         0      6496         1         0      6498         1         0
      6500         1         0      6503         1         0      6506         1         0
      6509         1         0      6512         1         0      6515         1         0
      6518         1         0      6521         1         0      6525         1         0
      6528         1         0      6531         1         0      6534         1         0
      6537         1         0      6540         1         0      6543         1         0
      6545         1         0      6547         1         0      6550         1         0
      6553         1         0      6556         1         0      6559         1         0
      6562         1         0      6565         1         0      6568         1         0
      6572         2         0      6588         2         0      6599         1         0
      6607         1         0      6616         1         0      6619         1         0
      6622         1         0      6625         1         0      6628         1         0
      6631         1         0      6634         1         0      6636         1         0
      6638         1         0      6641         1         0      6644         1         0
      6647         1         0      6650         1         0      6653         1         0
      6656         1         0      6659         1         0      6663         1         0
      6666         1         0      6669         1         0      6672         1         0
      6675         1         0      6678         1         0      6681         1         0
      6683         1         0      6685         1         0      6688         1         0
      6691         1         0      6694         1         0      6697         1         0
      6700         1         0      6703         1         0      6706         1         0
      6710         2         0      6726         2         0      6737         1         0
      6745         1         0      6754         1         0      6757         1         0
      6760         1         0      6763         1         0      6766         1         0
      6769         1         0      6772         1         0      6774         1         0
      6776         1         0      6779         1         0      6782         1         0
      6785         1         0      6788         1         0      6791         1         0
      6794         1         0      6797         1         0      6801         1         0
      6804         1         0      6807         1         0      6810         1         0
      6813         1         0      6816         1         0      6819         1         0
      6821         1         0      6823         1         0      6826         1         0
      6829         1         0      6832         1         0      6835         1         0
      6838         1         0      6841         1         0      6844         1         0
      6848         2         0      6864         2         0      6875         1         0
      6883         1         0      6892         1         0      6895         1         0
      6898         1         0      6901         1         0      6904         1         0
      6907         1         0      6910         1         0      6912         1         0
      6914         1         0      6917         1         0      6920         1         0
      6923         1         0      6926         1         0      6929         1         0
      6932         1         0      6935         1         0      6939         1         0
      6942         1         0      6945         1         0      6948         1         0
      6951         1         0      6954         1         0      6957         1         0
      6959         1         0      6961         1         0      6964         1         0
      6967         1         0      6970         1         0      6973         1         0
      6976         1         0      6979         1         0      6982         1         0
      6986         2         0      7002         2         0      7013         1         0
      7021         1         0      7030         1         0      7033         1         0
      7036         1         0      7039         1         0      7042         1         0
      7045         1         0      7048         1         0      7050         1         0
      7052         1         0      7055         1         0      7058         1         0
      7061         1         0      7064         1         0      7067         1         0
      7070         1         0      7073         1         0      7077         1         0
      7080         1         0      7083         1         0      7086         1         0
      7089         1         0      7092         1         0      7095         1         0
      7097         1         0      7099         1         0      7102         1         0
      7105         1         0      7108         1         0      7111         1         0
      7114         1         0      7117         1         0      7120         1         0
      7124         2         0      7140         2         0      7151         1         0
      7159         1         0      7168         1         0      7171         1         0
      7174         1         0      7177         1         0      7180         1         0
      7183         1         0      7186         1         0      7188         1         0
      7190         1         0      7193         1         0      7196         1         0
      7199         1         0      7202         1         0      7205         1         0
      7208         1         0      7211         1         0      7215         1         0
      7218         1         0      7221         1         0      7224         1         0
      7227         1         0      7230         1         0      7233         1         0
      7235         1         0      7237         1         0      7240         1         0
      7243         1         0      7246         1         0      7249         1         0
      7252         1         0      7255         1         0      7258         1         0
      7262         2         0      7278         2         0      7289         1         0
      7297         1         0      7306         1         0      7309         1         0
      7312         1         0      7315         1         0      7318         1         0
      7321         1         0      7324         1         0      7326         1         0
      7328         1         0      7331         1         0      7334         1         0
      7337         1         0      7340         1         0      7343         1         0
      7346         1         0      7349         1         0      7353         1         0
      7356         1         0      7359         1         0      7362         1         0
      7365         1         0      7368         1         0      7371         1         0
      7373         1         0      7375         1         0      7378         1         0
      7381         1         0      7384         1         0      7387         1         0
      7390         1         0      7393         1         0      7396         1         0
      7400         2         0      7416         2         0      7427         1         0
      7435         1         0      7444         1         0      7447         1         0
      7450         1         0      7453         1         0      7456         1         0
      7459         1         0      7462         1         0      7464         1         0
      7466         1         0      7469         1         0      7472         1         0
      7475         1         0      7478         1         0      7481         1         0
      7484         1         0      7487         1         0      7491         1         0
      7494         1         0      7497         1         0      7500         1         0
      7503         1         0      7506         1         0      7509         1         0
      7511         1         0      7513         1         0      7516         1         0
      7519         1         0      7522         1         0      7525         1         0
      7528         1         0      7531         1         0      7534         1         0
      7538         2         0      7554         2         0      7565         1         0
      7573         1         0      7582         1         0      7585         1         0
      7588         1         0      7591         1         0      7594         1         0
      7597         1         0      7600         1         0      7602         1         0
      7604         1         0      7607         1         0      7610         1         0
      7613         1         0      7616         1         0      7619         1         0
      7622         1         0      7625         1         0      7629         1         0
      7632         1         0      7635         1         0      7638         1         0
      7641         1         0      7644         1         0      7647         1         0
      7649         1         0      7651         1         0      7654         1         0
      7657         1         0      7660         1         0      7663         1         0
      7666         1         0      7669         1         0      7672         1         0
      7676         2         0      7692         2         0      7703         1         0
      7711         1         0      7720         1         0      7723         1         0
      7726         1         0      7729         1         0      7732         1         0
      7735         1         0      7738         1         0      7740         1         0
      7742         1         0      7745         1         0      7748         1         0
      7751         1         0      7754         1         0      7757         1         0
      7760         1         0      7763         1         0      7767         1         0
      7770         1         0      7773         1         0      7776         1         0
      7779         1         0      7782         1         0      7785         1         0
      7787         1         0      7789         1         0      7792         1         0
      7795         1         0      7798         1         0      7801         1         0
      7804         1         0      7807         1         0      7810         1         0
      7814         2         0      7830         2         0      7841         1         0
      7849         1         0      7858         1         0      7861         1         0
      7864         1         0      7867         1         0      7870         1         0
      7873         1         0      7876         1         0      7878         1         0
      7880         1         0      7883         1         0      7886         1         0
      7889         1         0      7892         1         0      7895         1         0
      7898         1         0      7901         1         0      7905         1         0
      7908         1         0      7911         1         0      7914         1         0
      7917         1         0      7920         1         0      7923         1         0
      7925         1         0      7927         1         0      7930         1         0
      7933         1         0      7936         1         0      7939         1         0
      7942         1         0      7945         1         0      7948         1         0
      7952         2         0      7968         2         0      7979         1         0
      7987         1         0      7996         1         0      7999         1         0
      8002         1         0      8005         1         0      8008         1         0
      8011         1         0      8014         1         0      8016         1         0
      8018         1         0      8021         1         0      8024         1         0
      8027         1         0      8030         1         0      8033         1         0
      8036         1         0      8039         1         0      8043         1         0
      8046         1         0      8049         1         0      8052         1         0
      8055         1         0      8058         1         0      8061         1         0
      8063         1         0      8065         1         0      8068         1         0
      8071         1         0      8074         1         0      8077         1         0
      8080         1         0      8083         1         0      8086         1         0
      8090         2         0      8106         2         0      8117         1         0
      8125         1         0      8134         1         0      8137         1         0
      8140         1         0      8143         1         0      8146         1         0
      8149         1         0      8152         1         0      8154         1         0
      8156         1         0      8159         1         0      8162         1         0
      8165         1         0      8168         1         0      8171         1         0
      8174         1         0      8177         1         0      8181         1         0
      8184         1         0      8187         1         0      8190         1         0
      8193         1         0      8196         1         0      8199         1         0
      8201         1         0      8203         1         0      8206         1         0
      8209         1         0      8212         1         0      8215         1         0
      8218         1         0      8221         1         0      8224         1         0
      8228         2         0      8244         2         0      8255         1         0
      8263         1         0      8272         1         0      8275         1         0
      8278         1         0      8281         1         0      8284         1         0
      8287         1         0      8290         1         0      8292         1         0
      8294         1         0      8297         1         0      8300         1         0
      8303         1         0      8306         1         0      8309         1         0
      8312         1         0      8315         1         0      8319         1         0
      8322         1         0      8325         1         0      8328         1         0
      8331         1         0      8334         1         0      8337         1         0
      8339         1         0      8341         1         0      8344         1         0
      8347         1         0      8350         1         0      8353         1         0
      8356         1         0      8359         1         0      8362         1         0
      8366         2         0      8382         2         0      8393         1         0
      8401         1         0      8410         1         0      8413         1         0
      8416         1         0      8419         1         0      8422         1         0
      8425         1         0      8428         1         0      8430         1         0
      8432         1         0      8435         1         0      8438         1         0
      8441         1         0      8444         1         0      8447         1         0
      8450         1         0      8453         1         0      8457         1         0
      8460         1         0      8463         1         0      8466         1         0
      8469         1         0      8472         1         0      8475         1         0
      8477         1         0      8479         1         0      8482         1         0
      8485         1         0      8488         1         0      8491         1         0
      8494         1         0      8497         1         0      8500         1         0
      8504         2         0      8520         2         0      8531         1         0
      8539         1         0      8548         1         0      8551         1         0
      8554         1         0      8557         1         0      8560         1         0
      8563         1         0      8566         1         0      8568         1         0
      8570         1         0      8573         1         0      8576         1         0
      8579         1         0      8582         1         0      8585         1         0
      8588         1         0      8591         1         0      8595         1         0
      8598         1         0      8601         1         0      8604         1         0
      8607         1         0      8610         1         0      8613         1         0
      8615         1         0      8617         1         0      8620         1         0
      8623         1         0      8626         1         0      8629         1         0
      8632         1         0      8635         1         0      8638         1         0
      8642         2         0      8658         2         0      8669         1         0
      8677         1         0      8686         1         0      8689         1         0
      8692         1         0      8695         1         0      8698         1         0
      8701         1         0      8704         1         0      8706         1         0
      8708         1         0      8711         1         0      8714         1         0
      8717         1         0      8720         1         0      8723         1         0
      8726         1         0      8729         1         0      8733         1         0
      8736         1         0      8739         1         0      8742         1         0
      8745         1         0      8748         1         0      8751         1         0
      8753         1         0      8755         1         0      8758         1         0
      8761         1         0      8764         1         0      8767         1         0
      8770         1         0      8773         1         0      8776         1         0
      8780         2         0      8796         2         0      8807         1         0
      8815         1         0      8824         1         0      8827         1         0
      8830         1         0      8833         1         0      8836         1         0
      8839         1         0      8842         1         0      8844         1         0
      8846         1         0      8849         1         0      8852         1         0
      8855         1         0      8858         1         0      8861         1         0
      8864         1         0      8867         1         0      8871         1         0
      8874         1         0      8877         1         0      8880         1         0
      8883         1         0      8886         1         0      8889         1         0
      8891         1         0      8893         1         0      8896         1         0
      8899         1         0      8902         1         0      8905         1         0
      8908         1         0      8911         1         0      8914         1         0
      8918         2         0      8934         2         0      8945         1         0
      8953         1         0      8962         1         0      8965         1         0
      8968         1         0      8971         1         0      8974         1         0
      8977         1         0      8980         1         0      8982         1         0
      8984         1         0      8987         1         0      8990         1         0
      8993         1         0      8996         1         0      8999         1         0
      9002         1         0      9005         1         0      9009         1         0
      9012         1         0      9015         1         0      9018         1         0
      9021         1         0      9024         1         0      9027         1         0
      9029         1         0      9031         1         0      9034         1         0
      9037         1         0      9040         1         0      9043         1         0
      9046         1         0      9049         1         0      9052         1         0
      9056         2         0      9072         2         0      9083         1         0
      9091         1         0      9100         1         0      9103         1         0
      9106         1         0      9109         1         0      9112         1         0
      9115         1         0      9118         1         0      9120         1         0
      9122         1         0      9125         1         0      9128         1         0
      9131         1         0      9134         1         0      9137         1         0
      9140         1         0      9143         1         0      9147         1         0
      9150         1         0      9153         1         0      9156         1         0
      9159         1         0      9162         1         0      9165         1         0
      9167         1         0      9169         1         0      9172         1         0
      9175         1         0      9178         1         0      9181         1         0
      9184         1         0      9187         1         0      9190         1         0
      9194         2         0      9210         2         0      9221         1         0
      9229         1         0      9238         1         0      9241         1         0
      9244         1         0      9247         1         0      9250         1         0
      9253         1         0      9256         1         0      9258         1         0
      9260         1         0      9263         1         0      9266         1         0
      9269         1         0      9272         1         0      9275         1         0
      9278         1         0      9281         1         0      9285         1         0
      9288         1         0      9291         1         0      9294         1         0
      9297         1         0      9300         1         0      9303         1         0
      9305         1         0      9307         1         0      9310         1         0
      9313         1         0      9316         1         0      9319         1         0
      9322         1         0      9325         1         0      9328         1         0
      9332         2         0      9348         2         0      9359         1         0
      9367         1         0      9376         1         0      9379         1         0
      9382         1         0      9385         1         0      9388         1         0
      9391         1         0      9394         1         0      9396         1         0
      9398         1         0      9401         1         0      9404         1         0
      9407         1         0      9410         1         0      9413         1         0
      9416         1         0      9419         1         0      9423         1         0
      9426         1         0      9429         1         0      9432         1         0
      9435         1         0      9438         1         0      9441         1         0
      9443         1         0      9445         1         0      9448         1         0
      9451         1         0      9454         1         0      9457         1         0
      9460         1         0      9463         1         0      9466         1         0
      9470         2         0      9486         2         0      9497         1         0
      9505         1         0      9514         1         0      9517         1         0
      9520         1         0      9523         1         0      9526         1         0
      9529         1         0      9532         1         0      9534         1         0
      9536         1         0      9539         1         0      9542         1         0
      9545         1         0      9548         1         0      9551         1         0
      9554         1         0      9557         1         0      9561         1         0
      9564         1         0      9567         1         0      9570         1         0
      9573         1         0      9576         1         0      9579         1         0
      9581         1         0      9583         1         0      9586         1         0
      9589         1         0      9592         1         0      9595         1         0
      9598         1         0      9601         1         0      9604         1         0
      9608         2         0      9624         2         0      9635         1         0
      9643         1         0      9652         1         0      9655         1         0
      9658         1         0      9661         1         0      9664         1         0
      9667         1         0      9670         1         0      9672         1         0
      9674         1         0      9677         1         0      9680         1         0
      9683         1         0      9686         1         0      9689         1         0
      9692         1         0      9695         1         0      9699         1         0
      9702         1         0      9705         1         0      9708         1         0
      9711         1         0      9714         1         0      9717         1         0
      9719         1         0      9721         1         0      9724         1         0
      9727         1         0      9730         1         0      9733         1         0
      9736         1         0      9739         1         0      9742         1         0
      9746         2         0      9762         2         0      9773         1         0
      9781         1         0      9790         1         0      9793         1         0
      9796         1         0      9799         1         0      9802         1         0
      9805         1         0      9808         1         0      9810         1         0
      9812         1         0      9815         1         0      9818         1         0
      9821         1         0      9824         1         0      9827         1         0
      9830         1         0      9833         1         0      9837         1         0
      9840         1         0      9843         1         0      9846         1         0
      9849         1         0      9852         1         0      9855         1         0
      9857         1         0      9859         1         0      9862         1         0
      9865         1         0      9868         1         0      9871         1         0
      9874         1         0      9877         1         0      9880         1         0
      9884         2         0      9900         2         0      9911         1         0
      9919         1         0      9928         1         0      9931         1         0
      9934         1         0      9937         1         0      9940         1         0
      9943         1         0      9946         1         0      9948         1         0
      9950         1         0      9953         1         0      9956         1         0
      9959         1         0      9962         1         0      9965         1         0
      9968         1         0      9971         1         0      9975         1         0
      9978         1         0      9981         1         0      9984         1         0
      9987         1         0      9990         1         0      9993         1         0
      9995         1         0      9997         1         0     10000         1         0
     10003         1         0     10006         1         0     10009         1         0
     10012         1         0     10015         1         0     10018         1         0
     10022         2         0     10038         2         0     10049         1         0
     10057         1         0     10066         1         0     10069         1         0
     10072         1         0     10075         1         0     10078         1         0
     10081         1         0     10084         1         0     10086         1         0
     10088         1         0     10091         1         0     10094         1         0
     10097         1         0     10100         1         0     10103         1         0
     10106         1         0     10109         1         0     10113         1         0
     10116         1         0     10119         1         0     10122         1         0
     10125         1         0     10128         1         0     10131         1         0
     10133         1         0     10135         1         0     10138         1         0
     10141         1         0     10144         1         0     10147         1         0
     10150         1         0     10153         1         0     10156         1         0
     10160         2         0     10176         2         0     10187         1         0
     10195         1         0     10204         1         0     10207         1         0
     10210         1         0     10213         1         0     10216         1         0
     10219         1         0     10222         1         0     10224         1         0
     10226         1         0     10229         1         0     10232         1         0
     10235         1         0     10238         1         0     10241         1         0
     10244         1         0     10247         1         0     10251         1         0
     10254         1         0     10257         1         0     10260         1         0
     10263         1         0     10266         1         0     10269         1         0
     10271         1         0     10273         1         0     10276         1         0
     10279         1         0     10282         1         0     10285         1         0
     10288         1         0     10291         1         0     10294         1         0
     10298         2         0     10314         2         0     10325         1         0
     10333         1         0     10342         1         0     10345         1         0
     10348         1         0     10351         1         0     10354         1         0
     10357         1         0     10360         1         0     10362         1         0
     10364         1         0     10367         1         0     10370         1         0
     10373         1         0     10376         1         0     10379         1         0
     10382         1         0     10385         1         0     10389         1         0
     10392         1         0     10395         1         0     10398         1         0
     10401         1         0     10404         1         0     10407         1         0
     10409         1         0     10411         1         0     10414         1         0
     10417         1         0     10420         1         0     10423         1         0
     10426         1         0     10429         1         0     10432         1         0
     10436         2         0     10452         2         0     10463         1         0
     10471         1         0     10480         1         0     10483         1         0
     10486         1         0     10489         1         0     10492         1         0
     10495         1         0     10498         1         0     10500         1         0
     10502         1         0     10505         1         0     10508         1         0
     10511         1         0     10514         1         0     10517         1         0
     10520         1         0     10523         1         0     10527         1         0
     10530         1         0     10533         1         0     10536         1         0
     10539         1         0     10542         1         0     10545         1         0
     10547         1         0     10549         1         0     10552         1         0
     10555         1         0     10558         1         0     10561         1         0
     10564         1         0     10567         1         0     10570         1         0
     10574         2         0     10590         2         0     10601         1         0
     10609         1         0     10618         1         0     10621         1         0
     10624         1         0     10627         1         0     10630         1         0
     10633         1         0     10636         1         0     10638         1         0
     10640         1         0     10643         1         0     10646         1         0
     10649         1         0     10652         1         0     10655         1         0
     10658         1         0     10661         1         0     10665         1         0
     10668         1         0     10671         1         0     10674         1         0
     10677         1         0     10680         1         0     10683         1         0
     10685         1         0     10687         1         0     10690         1         0
     10693         1         0     10696         1         0     10699         1         0
     10702         1         0     10705         1         0     10708         1         0
     10712         2         0     10728         2         0     10739         1         0
     10747         1         0     10756         1         0     10759         1         0
     10762         1         0     10765         1         0     10768         1         0
     10771         1         0     10774         1         0     10776         1         0
     10778         1         0     10781         1         0     10784         1         0
     10787         1         0     10790         1         0     10793         1         0
     10796         1         0     10799         1         0     10803         1         0
     10806         1         0     10809         1         0     10812         1         0
     10815         1         0     10818         1         0     10821         1         0
     10823         1         0     10825         1         0     10828         1         0
     10831         1         0     10834         1         0     10837         1         0
     10840         1         0     10843         1         0     10846         1         0
     10850         2         0     10866         2         0     10877         1         0
     10885         1         0     10894         1         0     10897         1         0
     10900         1         0     10903         1         0     10906         1         0
     10909         1         0     10912         1         0     10914         1         0
     10916         1         0     10919         1         0     10922         1         0
     10925         1         0     10928         1         0     10931         1         0
     10934         1         0     10937         1         0     10941         1         0
     10944         1         0     10947         1         0     10950         1         0
     10953         1         0     10956         1         0     10959         1         0
     10961         1         0     10963         1         0     10966         1         0
     10969         1         0     10972         1         0     10975         1         0
     10978         1         0     10981         1         0     10984         1         0
     10988         2         0     11004         2         0     11015         1         0
     11023         1         0     11032         1         0     11035         1         0
     11038         1         0     11041         1         0     11044         1         0
     11047         1         0     11050         1         0     11052         1         0
     11054         1         0     11057         1         0     11060         1         0
     11063         1         0     11066         1         0     11069         1         0
     11072         1         0     11075         1         0     11079         1         0
     11082         1         0     11085         1         0     11088         1         0
     11091         1         0     11094         1         0     11097         1         0
     11099         1         0     11101         1         0     11104         1         0
     11107         1         0     11110         1         0     11113         1         0
     11116         1         0     11119         1         0     11122         1         0
     11126         2         0     11142         2         0     11153         1         0
     11161         1         0     11170         1         0     11173         1         0
     11176         1         0     11179         1         0     11182         1         0
     11185         1         0     11188         1         0     11190         1         0
     11192         1         0     11195         1         0     11198         1         0
     11201         1         0     11204         1         0     11207         1         0
     11210         1         0     11213         1         0     11217         1         0
     11220         1         0     11223         1         0     11226         1         0
     11229         1         0     11232         1         0     11235         1         0
     11237         1         0     11239         1         0     11242         1         0
     11245         1         0     11248         1         0     11251         1         0
     11254         1         0     11257         1         0     11260         1         0
     11264         2         0     11280         2         0     11291         1         0
     11299         1         0     11308         1         0     11311         1         0
     11314         1         0     11317         1         0     11320         1         0
     11323         1         0     11326         1         0     11328         1         0
     11330         1         0     11333         1         0     11336         1         0
     11339         1         0     11342         1         0     11345         1         0
     11348         1         0     11351         1         0     11355         1         0
     11358         1         0     11361         1         0     11364         1         0
     11367         1         0     11370         1         0     11373         1         0
     11375         1         0     11377         1         0     11380         1         0
     11383         1         0     11386         1         0     11389         1         0
     11392         1         0     11395         1         0     11398         1         0
     11402         2         0     11418         2         0     11429         1         0
     11437         1         0     11446         1         0     11449         1         0
     11452         1         0     11455         1         0     11458         1         0
     11461         1         0     11464         1         0     11466         1         0
     11468         1         0     11471         1         0     11474         1         0
     11477         1         0     11480         1         0     11483         1         0
     11486         1         0     11489         1         0     11493         1         0
     11496         1         0     11499         1         0     11502         1         0
     11505         1         0     11508         1         0     11511         1         0
     11513         1         0     11515         1         0     11518         1         0
     11521         1         0     11524         1         0     11527         1         0
     11530         1         0     11533         1         0     11536         1         0
     11540         2         0     11556         2         0     11567         1         0
     11575         1         0     11584         1         0     11587         1         0
     11590         1         0     11593         1         0     11596         1         0
     11599         1         0     11602         1         0     11604         1         0
     11606         1         0     11609         1         0     11612         1         0
     11615         1         0     11618         1         0     11621         1         0
     11624         1         0     11627         1         0     11631         1         0
     11634         1         0     11637         1         0     11640         1         0
     11643         1         0     11646         1         0     11649         1         0
     11651         1         0     11653         1         0     11656         1         0
     11659         1         0     11662         1         0     11665         1         0
     11668         1         0     11671         1         0     11674         1         0
     11678         2         0     11694         2         0     11705         1         0
     11713         1         0     11722         1         0     11725         1         0
     11728         1         0     11731         1         0     11734         1         0
     11737         1         0     11740         1         0     11742         1         0
     11744         1         0     11747         1         0     11750         1         0
     11753         1         0     11756         1         0     11759         1         0
     11762         1         0     11765         1         0     11769         1         0
     11772         1         0     11775         1         0     11778         1         0
     11781         1         0     11784         1         0     11787         1         0
     11789         1         0     11791         1         0     11794         1         0
     11797         1         0     11800         1         0     11803         1         0
     11806         1         0     11809         1         0     11812         1         0
     11816         2         0     11832         2         0     11843         1         0
     11851         1         0     11860         1         0     11863         1         0
     11866         1         0     11869         1         0     11872         1         0
     11875         1         0     11878         1         0     11880         1         0
     11882         1         0     11885         1         0     11888         1         0
     11891         1         0     11894         1         0     11897         1         0
     11900         1         0     11903         1         0     11907         1         0
     11910         1         0     11913         1         0     11916         1         0
     11919         1         0     11922         1         0     11925         1         0
     11927         1         0     11929         1         0     11932         1         0
     11935         1         0     11938         1         0     11941         1         0
     11944         1         0     11947         1         0     11950         1         0
     11954         2         0     11970         2         0     11981         1         0
     11989         1         0     11998         1         0     12001         1         0
     12004         1         0     12007         1         0     12010         1         0
     12013         1         0     12016         1         0     12018         1         0
     12020         1         0     12023         1         0     12026         1         0
     12029         1         0     12032         1         0     12035         1         0
     12038         1         0     12041         1         0     12045         1         0
     12048         1         0     12051         1         0     12054         1         0
     12057         1         0     12060         1         0     12063         1         0
     12065         1         0     12067         1         0     12070         1         0
     12073         1         0     12076         1         0     12079         1         0
     12082         1         0     12085         1         0     12088         1         0
     12092         2         0     12108         2         0     12119         1         0
     12127         1         0     12136         1         0     12139         1         0
     12142         1         0     12145         1         0     12148         1         0
     12151         1         0     12154         1         0     12156         1         0
     12158         1         0     12161         1         0     12164         1         0
     12167         1         0     12170         1         0     12173         1         0
     12176         1         0     12179         1         0     12183         1         0
     12186         1         0     12189         1         0     12192         1         0
     12195         1         0     12198         1         0     12201         1         0
     12203         1         0     12205         1         0     12208         1         0
     12211         1         0     12214         1         0     12217         1         0
     12220         1         0     12223         1         0     12226         1         0
     12230         2         0     12246         2         0     12257         1         0
     12265         1         0     12274         1         0     12277         1         0
     12280         1         0     12283         1         0     12286         1         0
     12289         1         0     12292         1         0     12294         1         0
     12296         1         0     12299         1         0     12302         1         0
     12305         1         0     12308         1         0     12311         1         0
     12314         1         0     12317         1         0     12321         1         0
     12324         1         0     12327         1         0     12330         1         0
     12333         1         0     12336         1         0     12339         1         0
     12341         1         0     12343         1         0     12346         1         0
     12349         1         0     12352         1         0     12355         1         0
     12358         1         0     12361         1         0     12364         1         0
     12368         2         0     12384         2         0     12395         1         0
     12403         1         0     12412         1         0     12415         1         0
     12418         1         0     12421         1         0     12424         1         0
     12427         1         0     12430         1         0     12432         1         0
     12434         1         0     12437         1         0     12440         1         0
     12443         1         0     12446         1         0     12449         1         0
     12452         1         0     12455         1         0     12459         1         0
     12462         1         0     12465         1         0     12468         1         0
     12471         1         0     12474         1         0     12477         1         0
     12479         1         0     12481         1         0     12484         1         0
     12487         1         0     12490         1         0     12493         1         0
     12496         1         0     12499         1         0     12502         1         0
     12506         2         0     12522         2         0     12533         1         0
     12541         1         0     12550         1         0     12553         1         0
     12556         1         0     12559         1         0     12562         1         0
     12565         1         0     12568         1         0     12570         1         0
     12572         1         0     12575         1         0     12578         1         0
     12581         1         0     12584         1         0     12587         1         0
     12590         1         0     12593         1         0     12597         1         0
     12600         1         0     12603         1         0     12606         1         0
     12609         1         0     12612         1         0     12615         1         0
     12617         1         0     12619         1         0     12622         1         0
     12625         1         0     12628         1         0     12631         1         0
     12634         1         0     12637         1         0     12640         1         0
     12644         2         0     12660         2         0     12671         1         0
     12679         1         0     12688         1         0     12691         1         0
     12694         1         0     12697         1         0     12700         1         0
     12703         1         0     12706         1         0     12708         1         0
     12710         1         0     12713         1         0     12716         1         0
     12719         1         0     12722         1         0     12725         1         0
     12728         1         0     12731         1         0     12735         1         0
     12738         1         0     12741         1         0     12744         1         0
     12747         1         0     12750         1         0     12753         1         0
     12755         1         0     12757         1         0     12760         1         0
     12763         1         0     12766         1         0     12769         1         0
     12772         1         0     12775         1         0     12778         1         0
     12782         2         0     12798         2         0     12809         1         0
     12817         1         0     12826         1         0     12829         1         0
     12832         1         0     12835         1         0     12838         1         0
     12841         1         0     12844         1         0     12846         1         0
     12848         1         0     12851         1         0     12854         1         0
     12857         1         0     12860         1         0     12863         1         0
     12866         1         0     12869         1         0     12873         1         0
     12876         1         0     12879         1         0     12882         1         0
     12885         1         0     12888         1         0     12891         1         0
     12893         1         0     12895         1         0     12898         1         0
     12901         1         0     12904         1         0     12907         1         0
     12910         1         0     12913         1         0     12916         1         0
     12920         2         0     12936         2         0     12947         1         0
     12955         1         0     12964         1         0     12967         1         0
     12970         1         0     12973         1         0     12976         1         0
     12979         1         0     12982         1         0     12984         1         0
     12986         1         0     12989         1         0     12992         1         0
     12995         1         0     12998         1         0     13001         1         0
     13004         1         0     13007         1         0     13011         1         0
     13014         1         0     13017         1         0     13020         1         0
     13023         1         0     13026         1         0     13029         1         0
     13031         1         0     13033         1         0     13036         1         0
     13039         1         0     13042         1         0     13045         1         0
     13048         1         0     13051         1         0     13054         1         0
     13058         2         0     13074         2         0     13085         1         0
     13093         1         0     13102         1         0     13105         1         0
     13108         1         0     13111         1         0     13114         1         0
     13117         1         0     13120         1         0     13122         1         0
     13124         1         0     13127         1         0     13130         1         0
     13133         1         0     13136         1         0     13139         1         0
     13142         1         0     13145         1         0     13149         1         0
     13152         1         0     13155         1         0     13158         1         0
     13161         1         0     13164         1         0     13167         1         0
     13169         1         0     13171         1         0     13174         1         0
     13177         1         0     13180         1         0     13183         1         0
     13186         1         0     13189         1         0     13192         1         0
     13196         2         0     13212         2         0     13223         1         0
     13231         1         0     13240         1         0     13243         1         0
     13246         1         0     13249         1         0     13252         1         0
     13255         1         0     13258         1         0     13260         1         0
     13262         1         0     13265         1         0     13268         1         0
     13271         1         0     13274         1         0     13277         1         0
     13280         1         0     13283         1         0     13287         1         0
     13290         1         0     13293         1         0     13296         1         0
     13299         1         0     13302         1         0     13305         1         0
     13307         1         0     13309         1         0     13312         1         0
     13315         1         0     13318         1         0     13321         1         0
     13324         1         0     13327         1         0     13330         1         0
     13334         2         0     13350         2         0     13361         1         0
     13369         1         0     13378         1         0     13381         1         0
     13384         1         0     13387         1         0     13390         1         0
     13393         1         0     13396         1         0     13398         1         0
     13400         1         0     13403         1         0     13406         1         0
     13409         1         0     13412         1         0     13415         1         0
     13418         1         0     13421         1         0     13425         1         0
     13428         1         0     13431         1         0     13434         1         0
     13437         1         0     13440         1         0     13443         1         0
     13445         1         0     13447         1         0     13450         1         0
     13453         1         0     13456         1         0     13459         1         0
     13462         1         0     13465         1         0     13468         1         0
     13472         2         0     13488         2         0     13499         1         0
     13507         1         0     13516         1         0     13519         1         0
     13522         1         0     13525         1         0     13528         1         0
     13531         1         0     13534         1         0     13536         1         0
     13538         1         0     13541         1         0     13544         1         0
     13547         1         0     13550         1         0     13553         1         0
     13556         1         0     13559         1         0     13563         1         0
     13566         1         0     13569         1         0     13572         1         0
     13575         1         0     13578         1         0     13581         1         0
     13583         1         0     13585         1         0     13588         1         0
     13591         1         0     13594         1         0     13597         1         0
     13600         1         0     13603         1         0     13606         1         0
     13610         2         0     13626         2         0     13637         1         0
     13645         1         0     13654         1         0     13657         1         0
     13660         1         0     13663         1         0     13666         1         0
     13669         1         0     13672         1         0     13674         1         0
     13676         1         0     13679         1         0     13682         1         0
     13685         1         0     13688         1         0     13691         1         0
     13694         1         0     13697         1         0     13701         1         0
     13704         1         0     13707         1         0     13710         1         0
     13713         1         0     13716         1         0     13719         1         0
     13721         1         0     13723         1         0     13726         1         0
     13729         1         0     13732         1         0     13735         1         0
     13738         1         0     13741         1         0     13744         1         0
     13748         2         0     13764         2         0     13775         1         0
     13783         1         0     13792         1         0     13795         1         0
     13798         1         0     13801         1         0     13804         1         0
     13807         1         0     13810         1         0     13812         1         0
     13814         1         0     13817         1         0     13820         1         0
     13823         1         0     13826         1         0     13829         1         0
     13832         1         0     13835         1         0     13839         1         0
     13842         1         0     13845         1         0     13848         1         0
     13851         1         0     13854         1         0     13857         1         0
     13859         1         0     13861         1         0     13864         1         0
     13867         1         0     13870         1         0     13873         1         0
     13876         1         0     13879         1         0     13882         1         0
     13886         2         0     13902         2         0     13913         1         0
     13921         1         0     13930         1         0     13933         1         0
     13936         1         0     13939         1         0     13942         1         0
     13945         1         0     13948         1         0     13950         1         0
     13952         1         0     13955         1         0     13958         1         0
     13961         1         0     13964         1         0     13967         1         0
     13970         1         0     13973         1         0     13977         1         0
     13980         1         0     13983         1         0     13986         1         0
     13989         1         0     13992         1         0     13995         1         0
     13997         1         0     13999         1         0     14002         1         0
     14005         1         0     14008         1         0     14011         1         0
     14014         1         0     14017         1         0     14020         1         0
     14024         2         0     14040         2         0     14051         1         0
     14059         1         0     14068         1         0     14071         1         0
     14074         1         0     14077         1         0     14080         1         0
     14083         1         0     14086         1         0     14088         1         0
     14090         1         0     14093         1         0     14096         1         0
     14099         1         0     14102         1         0     14105         1         0
     14108         1         0     14111         1         0     14115         1         0
     14118         1         0     14121         1         0     14124         1         0
     14127         1         0     14130         1         0     14133         1         0
     14135         1         0     14137         1         0     14140         1         0
     14143         1         0     14146         1         0     14149         1         0
     14152         1         0     14155         1         0     14158         1         0
     14162         2         0     14178         2         0     14189         1         0
     14197         1         0     14206         1         0     14209         1         0
     14212         1         0     14215         1         0     14218         1         0
     14221         1         0     14224         1         0     14226         1         0
     14228         1         0     14231         1         0     14234         1         0
     14237         1         0     14240         1         0     14243         1         0
     14246         1         0     14249         1         0     14253         1         0
     14256         1         0     14259         1         0     14262         1         0
     14265         1         0     14268         1         0     14271         1         0
     14273         1         0     14275         1         0     14278         1         0
     14281         1         0     14284         1         0     14287         1         0
     14290         1         0     14293         1         0     14296         1         0
     14300         2         0     14316         2         0     14327         1         0
     14335         1         0     14344         1         0     14347         1         0
     14350         1         0     14353         1         0     14356         1         0
     14359         1         0     14362         1         0     14364         1         0
     14366         1         0     14369         1         0     14372         1         0
     14375         1         0     14378         1         0     14381         1         0
     14384         1         0     14387         1         0     14391         1         0
     14394         1         0     14397         1         0     14400         1         0
     14403         1         0     14406         1         0     14409         1         0
     14411         1         0     14413         1         0     14416         1         0
     14419         1         0     14422         1         0     14425         1         0
     14428         1         0     14431         1         0     14434         1         0
     14438         2         0     14454         2         0     14465         1         0
     14473         1         0     14482         1         0     14485         1         0
     14488         1         0     14491         1         0     14494         1         0
     14497         1         0     14500         1         0     14502         1         0
     14504         1         0     14507         1         0     14510         1         0
     14513         1         0     14516         1         0     14519         1         0
     14522         1         0     14525         1         0     14529         1         0
     14532         1         0     14535         1         0     14538         1         0
     14541         1         0     14544         1         0     14547         1         0
     14549         1         0     14551         1         0     14554         1         0
     14557         1         0     14560         1         0     14563         1         0
     14566         1         0     14569         1         0     14572         1         0
     14576         2         0     14592         2         0     14603         1         0
     14611         1         0     14620         1         0     14623         1         0
     14626         1         0     14629         1         0     14632         1         0
     14635         1         0     14638         1         0     14640         1         0
     14642         1         0     14645         1         0     14648         1         0
     14651         1         0     14654         1         0     14657         1         0
     14660         1         0     14663         1         0     14667         1         0
     14670         1         0     14673         1         0     14676         1         0
     14679         1         0     14682         1         0     14685         1         0
     14687         1         0     14689         1         0     14692         1         0
     14695         1         0     14698         1         0     14701         1         0
     14704         1         0     14707         1         0     14710         1         0
     14714         2         0     14730         2         0     14741         1         0
     14749         1         0     14758         1         0     14761         1         0
     14764         1         0     14767         1         0     14770         1         0
     14773         1         0     14776         1         0     14778         1         0
     14780         1         0     14783         1         0     14786         1         0
     14789         1         0     14792         1         0     14795         1         0
     14798         1         0     14801         1         0     14805         1         0
     14808         1         0     14811         1         0     14814         1         0
     14817         1         0     14820         1         0     14823         1         0
     14825         1         0     14827         1         0     14830         1         0
     14833         1         0     14836         1         0     14839         1         0
     14842         1         0     14845         1         0     14848         1         0
     14852         2         0     14868         2         0     14879         1         0
     14887         1         0     14896         1         0     14899         1         0
     14902         1         0     14905         1         0     14908         1         0
     14911         1         0     14914         1         0     14916         1         0
     14918         1         0     14921         1         0     14924         1         0
     14927         1         0     14930         1         0     14933         1         0
     14936         1         0     14939         1         0     14943         1         0
     14946         1         0     14949         1         0     14952         1         0
     14955         1         0     14958         1         0     14961         1         0
     14963         1         0     14965         1         0     14968         1         0
     14971         1         0     14974         1         0     14977         1         0
     14980         1         0     14983         1         0     14986         1         0
     14990         2         0     15006         2         0     15017         1         0
     15025         1         0     15034         1         0     15037         1         0
     15040         1         0     15043         1         0     15046         1         0
     15049         1         0     15052         1         0     15054         1         0
     15056         1         0     15059         1         0     15062         1         0
     15065         1         0     15068         1         0     15071         1         0
     15074         1         0     15077         1         0     15081         1         0
     15084         1         0     15087         1         0     15090         1         0
     15093         1         0     15096         1         0     15099         1         0
     15101         1         0     15103         1         0     15106         1         0
     15109         1         0     15112         1         0     15115         1         0
     15118         1         0     15121         1         0     15124         1         0
     15128         2         0     15144         2         0     15155         1         0
     15163         1         0     15172         1         0     15175         1         0
     15178         1         0     15181         1         0     15184         1         0
     15187         1         0     15190         1         0     15192         1         0
     15194         1         0     15197         1         0     15200         1         0
     15203         1         0     15206         1         0     15209         1         0
     15212         1         0     15215         1         0     15219         1         0
     15222         1         0     15225         1         0     15228         1         0
     15231         1         0     15234         1         0     15237         1         0
     15239         1         0     15241         1         0     15244         1         0
     15247         1         0     15250         1         0     15253         1         0
     15256         1         0     15259         1         0     15262         1         0
     15266         2         0     15282         2         0     15293         1         0
     15301         1         0     15310         1         0     15313         1         0
     15316         1         0     15319         1         0     15322         1         0
     15325         1         0     15328         1         0     15330         1         0
     15332         1         0     15335         1         0     15338         1         0
     15341         1         0     15344         1         0     15347         1         0
     15350         1         0     15353         1         0     15357         1         0
     15360         1         0     15363         1         0     15366         1         0
     15369         1         0     15372         1         0     15375         1         0
     15377         1         0     15379         1         0     15382         1         0
     15385         1         0     15388         1         0     15391         1         0
     15394         1         0     15397         1         0     15400         1         0
     15404         2         0     15420         2         0     15431         1         0
     15439         1         0     15448         1         0     15451         1         0
     15454         1         0     15457         1         0     15460         1         0
     15463         1         0     15466         1         0     15468         1         0
     15470         1         0     15473         1         0     15476         1         0
     15479         1         0     15482         1         0     15485         1         0
     15488         1         0     15491         1         0     15495         1         0
     15498         1         0     15501         1         0     15504         1         0
     15507         1         0     15510         1         0     15513         1         0
     15515         1         0     15517         1         0     15520         1         0
     15523         1         0     15526         1         0     15529         1         0
     15532         1         0     15535         1         0     15538         1         0
     15542         2         0     15558         2         0     15569         1         0
     15577         1         0     15586         1         0     15589         1         0
     15592         1         0     15595         1         0     15598         1         0
     15601         1         0     15604         1         0     15606         1         0
     15608         1         0     15611         1         0     15614         1         0
     15617         1         0     15620         1         0     15623         1         0
     15626         1         0     15629         1         0     15633         1         0
     15636         1         0     15639         1         0     15642         1         0
     15645         1         0     15648         1         0     15651         1         0
     15653         1         0     15655         1         0     15658         1         0
     15661         1         0     15664         1         0     15667         1         0
     15670         1         0     15673         1         0     15676         1         0
     15680         2         0     15696         2         0     15707         1         0
     15715         1         0     15724         1         0     15727         1         0
     15730         1         0     15733         1         0     15736         1         0
     15739         1         0     15742         1         0     15744         1         0
     15746         1         0     15749         1         0     15752         1         0
     15755         1         0     15758         1         0     15761         1         0
     15764         1         0     15767         1         0     15771         1         0
     15774         1         0     15777         1         0     15780         1         0
     15783         1         0     15786         1         0     15789         1         0
     15791         1         0     15793         1         0     15796         1         0
     15799         1         0     15802         1         0     15805         1         0
     15808         1         0     15811         1         0     15814         1         0
     15818         2         0     15834         2         0     15845         1         0
     15853         1         0     15862         1         0     15865         1         0
     15868         1         0     15871         1         0     15874         1         0
     15877         1         0     15880         1         0     15882         1         0
     15884         1         0     15887         1         0     15890         1         0
     15893         1         0     15896         1         0     15899         1         0
     15902         1         0     15905         1         0     15909         1         0
     15912         1         0     15915         1         0     15918         1         0
     15921         1         0     15924         1         0     15927         1         0
     15929         1         0     15931         1         0     15934         1         0
     15937         1         0     15940         1         0     15943         1         0
     15946         1         0     15949         1         0     15952         1         0
     15956         2         0     15972         2         0     15983         1         0
     15991         1         0     16000         1         0     16003         1         0
     16006         1         0     16009         1         0     16012         1         0
     16015         1         0     16018         1         0     16020         1         0
     16022         1         0     16025         1         0     16028         1         0
     16031         1         0     16034         1         0     16037         1         0
     16040         1         0     16043         1         0     16047         1         0
     16050         1         0     16053         1         0     16056         1         0
     16059         1         0     16062         1         0     16065         1         0
     16067         1         0     16069         1         0     16072         1         0
     16075         1         0     16078         1         0     16081         1         0
     16084         1         0     16087         1         0     16090         1         0
     16094         2         0     16110         2         0     16121         1         0
     16129         1         0     16138         1         0     16141         1         0
     16144         1         0     16147         1         0     16150         1         0
     16153         1         0     16156         1         0     16158         1         0
     16160         1         0     16163         1         0     16166         1         0
     16169         1         0     16172         1         0     16175         1         0
     16178         1         0     16181         1         0     16185         1         0
     16188         1         0     16191         1         0     16194         1         0
     16197         1         0     16200         1         0     16203         1         0
     16205         1         0     16207         1         0     16210         1         0
     16213         1         0     16216         1         0     16219         1         0
     16222         1         0     16225         1         0     16228         1         0
     16232         2         0     16248         2         0     16259         1         0
     16267         1         0     16276         1         0     16279         1         0
     16282         1         0     16285         1         0     16288         1         0
     16291         1         0     16294         1         0     16296         1         0
     16298         1         0     16301         1         0     16304         1         0
     16307         1         0     16310         1         0     16313         1         0
     16316         1         0     16319         1         0     16323         1         0
     16326         1         0     16329         1         0     16332         1         0
     16335         1         0     16338         1         0     16341         1         0
     16343         1         0     16345         1         0     16348         1         0
     16351         1         0     16354         1         0     16357         1         0
     16360         1         0     16363         1         0     16366         1         0
     16370         2         0     16386         2         0     16397         1         0
     16405         1         0     16414         1         0     16417         1         0
     16420         1         0     16423         1         0     16426         1         0
     16429         1         0     16432         1         0     16434         1         0
     16436         1         0     16439         1         0     16442         1         0
     16445         1         0     16448         1         0     16451         1         0
     16454         1         0     16457         1         0     16461         1         0
     16464         1         0     16467         1         0     16470         1         0
     16473         1         0     16476         1         0     16479         1         0
     16481         1         0     16483         1         0     16486         1         0
     16489         1         0     16492         1         0     16495         1         0
     16498         1         0     16501         1         0     16504         1         0
     16508         2         0     16524         2         0     16535         1         0
     16543         1         0     16552         1         0     16555         1         0
     16558         1         0     16561         1         0     16564         1         0
     16567         1         0     16570         1         0     16572         1         0
     16574         1         0     16577         1         0     16580         1         0
     16583         1         0     16586         1         0     16589         1         0
     16592         1         0     16595         1         0     16599         1         0
     16602         1         0     16605         1         0     16608         1         0
     16611         1         0     16614         1         0     16617         1         0
     16619         1         0     16621         1         0     16624         1         0
     16627         1         0     16630         1         0     16633         1         0
     16636         1         0     16639         1         0     16642         1         0
     16646         2         0     16662         2         0     16673         1         0
     16681         1         0     16690         1         0     16693         1         0
     16696         1         0     16699         1         0     16702         1         0
     16705         1         0     16708         1         0     16710         1         0
     16712         1         0     16715         1         0     16718         1         0
     16721         1         0     16724         1         0     16727         1         0
     16730         1         0     16733         1         0     16737         1         0
     16740         1         0     16743         1         0     16746         1         0
     16749         1         0     16752         1         0     16755         1         0
     16757         1         0     16759         1         0     16762         1         0
     16765         1         0     16768         1         0     16771         1         0
     16774         1         0     16777         1         0     16780         1         0
     16784         2         0     16800         2         0     16811         1         0
     16819         1         0     16828         1         0     16831         1         0
     16834         1         0     16837         1         0     16840         1         0
     16843         1         0     16846         1         0     16848         1         0
     16850         1         0     16853         1         0     16856         1         0
     16859         1         0     16862         1         0     16865         1         0
     16868         1         0     16871         1         0     16875         1         0
     16878         1         0     16881         1         0     16884         1         0
     16887         1         0     16890         1         0     16893         1         0
     16895         1         0     16897         1         0     16900         1         0
     16903         1         0     16906         1         0     16909         1         0
     16912         1         0     16915         1         0     16918         1         0
     16922         2         0     16938         2         0     16949         1         0
     16957         1         0     16966         1         0     16969         1         0
     16972         1         0     16975         1         0     16978         1         0
     16981         1         0     16984         1         0     16986         1         0
     16988         1         0     16991         1         0     16994         1         0
     16997         1         0     17000         1         0     17003         1         0
     17006         1         0     17009         1         0     17013         1         0
     17016         1         0     17019         1         0     17022         1         0
     17025         1         0     17028         1         0     17031         1         0
     17033         1         0     17035         1         0     17038         1         0
     17041         1         0     17044         1         0     17047         1         0
     17050         1         0     17053         1         0     17056         1         0
     17060         2         0     17076         2         0     17087         1         0
     17095         1         0     17104         1         0     17107         1         0
     17110         1         0     17113         1         0     17116         1         0
     17119         1         0     17122         1         0     17124         1         0
     17126         1         0     17129         1         0     17132         1         0
     17135         1         0     17138         1         0     17141         1         0
     17144         1         0     17147         1         0     17151         1         0
     17154         1         0     17157         1         0     17160         1         0
     17163         1         0     17166         1         0     17169         1         0
     17171         1         0     17173         1         0     17176         1         0
     17179         1         0     17182         1         0     17185         1         0
     17188         1         0     17191         1         0     17194         1         0
     17198         2         0     17214         2         0     17225         1         0
     17233         1         0     17242         1         0     17245         1         0
     17248         1         0     17251         1         0     17254         1         0
     17257         1         0     17260         1         0     17262         1         0
     17264         1         0     17267         1         0     17270         1         0
     17273         1         0     17276         1         0     17279         1         0
     17282         1         0     17285         1         0     17289         1         0
     17292         1         0     17295         1         0     17298         1         0
     17301         1         0     17304         1         0     17307         1         0
     17309         1         0     17311         1         0     17314         1         0
     17317         1         0     17320         1         0     17323         1         0
     17326         1         0     17329         1         0     17332         1         0
     17336         2         0     17352         2         0     17363         1         0
     17371         1         0     17380         1         0     17383         1         0
     17386         1         0     17389         1         0     17392         1         0
     17395         1         0     17398         1         0     17400         1         0
     17402         1         0     17405         1         0     17408         1         0
     17411         1         0     17414         1         0     17417         1         0
     17420         1         0     17423         1         0     17427         1         0
     17430         1         0     17433         1         0     17436         1         0
     17439         1         0     17442         1         0     17445         1         0
     17447         1         0     17449         1         0     17452         1         0
     17455         1         0     17458         1         0     17461         1         0
     17464         1         0     17467         1         0     17470         1         0
     17474         2         0     17490         2         0     17501         1         0
     17509         1         0     17518         1         0     17521         1         0
     17524         1         0     17527         1         0     17530         1         0
     17533         1         0     17536         1         0     17538         1         0
     17540         1         0     17543         1         0     17546         1         0
     17549         1         0     17552         1         0     17555         1         0
     17558         1         0     17561         1         0     17565         1         0
     17568         1         0     17571         1         0     17574         1         0
     17577         1         0     17580         1         0     17583         1         0
     17585         1         0     17587         1         0     17590         1         0
     17593         1         0     17596         1         0     17599         1         0
     17602         1         0     17605         1         0     17608         1         0
     17612         2         0     17628         2         0     17639         1         0
     17647         1         0     17656         1         0     17659         1         0
     17662         1         0     17665         1         0     17668         1         0
     17671         1         0     17674         1         0     17676         1         0
     17678         1         0     17681         1         0     17684         1         0
     17687         1         0     17690         1         0     17693         1         0
     17696         1         0     17699         1         0     17703         1         0
     17706         1         0     17709         1         0     17712         1         0
     17715         1         0     17718         1         0     17721         1         0
     17723         1         0     17725         1         0     17728         1         0
     17731         1         0     17734         1         0     17737         1         0
     17740         1         0     17743         1         0     17746         1         0
     17750         2         0     17766         2         0     17777         1         0
     17785         1         0     17794         1         0     17797         1         0
     17800         1         0     17803         1         0     17806         1         0
     17809         1         0     17812         1         0     17814         1         0
     17816         1         0     17819         1         0     17822         1         0
     17825         1         0     17828         1         0     17831         1         0
     17834         1         0     17837         1         0     17841         1         0
     17844         1         0     17847         1         0     17850         1         0
     17853         1         0     17856         1         0     17859         1         0
     17861         1         0     17863         1         0     17866         1         0
     17869         1         0     17872         1         0     17875         1         0
     17878         1         0     17881         1         0     17884         1         0
     17888         2         0     17904         2         0     17915         1         0
     17923         1         0     17932         1         0     17935         1         0
     17938         1         0     17941         1         0     17944         1         0
     17947         1         0     17950         1         0     17952         1         0
     17954         1         0     17957         1         0     17960         1         0
     17963         1         0     17966         1         0     17969         1         0
     17972         1         0     17975         1         0     17979         1         0
     17982         1         0     17985         1         0     17988         1         0
     17991         1         0     17994         1         0     17997         1         0
     17999         1         0     18001         1         0     18004         1         0
     18007         1         0     18010         1         0     18013         1         0
     18016         1         0     18019         1         0     18022         1         0
     18026         2         0     18042         2         0     18053         1         0
     18061         1         0     18070         1         0     18073         1         0
     18076         1         0     18079         1         0     18082         1         0
     18085         1         0     18088         1         0     18090         1         0
     18092         1         0     18095         1         0     18098         1         0
     18101         1         0     18104         1         0     18107         1         0
     18110         1         0     18113         1         0     18117         1         0
     18120         1         0     18123         1         0     18126         1         0
     18129         1         0     18132         1         0     18135         1         0
     18137         1         0     18139         1         0     18142         1         0
     18145         1         0     18148         1         0     18151         1         0
     18154         1         0     18157         1         0     18160         1         0
     18164         2         0     18180         2         0     18191         1         0
     18199         1         0     18208         1         0     18211         1         0
     18214         1         0     18217         1         0     18220         1         0
     18223         1         0     18226         1         0     18228         1         0
     18230         1         0     18233         1         0     18236         1         0
     18239         1         0     18242         1         0     18245         1         0
     18248         1         0     18251         1         0     18255         1         0
     18258         1         0     18261         1         0     18264         1         0
     18267         1         0     18270         1         0     18273         1         0
     18275         1         0     18277         1         0     18280         1         0
     18283         1         0     18286         1         0     18289         1         0
     18292         1         0     18295         1         0     18298         1         0
     18302         2         0     18318         2         0     18329         1         0
     18337         1         0     18346         1         0     18349         1         0
     18352         1         0     18355         1         0     18358         1         0
     18361         1         0     18364         1         0     18366         1         0
     18368         1         0     18371         1         0     18374         1         0
     18377         1         0     18380         1         0     18383         1         0
     18386         1         0     18389         1         0     18393         1         0
     18396         1         0     18399         1         0     18402         1         0
     18405         1         0     18408         1         0     18411         1         0
     18413         1         0     18415         1         0     18418         1         0
     18421         1         0     18424         1         0     18427         1         0
     18430         1         0     18433         1         0     18436         1         0
     18440         2         0     18456         2         0     18467         1         0
     18475         1         0     18484         1         0     18487         1         0
     18490         1         0     18493         1         0     18496         1         0
     18499         1         0     18502         1         0     18504         1         0
     18506         1         0     18509         1         0     18512         1         0
     18515         1         0     18518         1         0     18521         1         0
     18524         1         0     18527         1         0     18531         1         0
     18534         1         0     18537         1         0     18540         1         0
     18543         1         0     18546         1         0     18549         1         0
     18551         1         0     18553         1         0     18556         1         0
     18559         1         0     18562         1         0     18565         1         0
     18568         1         0     18571         1         0     18574         1         0
     18578         2         0     18594         2         0     18605         1         0
     18613         1         0     18622         1         0     18625         1         0
     18628         1         0     18631         1         0     18634         1         0
     18637         1         0     18640         1         0     18642         1         0
     18644         1         0     18647         1         0     18650         1         0
     18653         1         0     18656         1         0     18659         1         0
     18662         1         0     18665         1         0     18669         1         0
     18672         1         0     18675         1         0     18678         1         0
     18681         1         0     18684         1         0     18687         1         0
     18689         1         0     18691         1         0     18694         1         0
     18697         1         0     18700         1         0     18703         1         0
     18706         1         0     18709         1         0     18712         1         0

         0         0 !NUMLP NUMLPH

        24 !NCRTERM: cross-terms
         8        10        12        18        10        12        18        20
        18        20        22        37        20        22        37        39
        37        39        41        47        39        41        47        49
        47        49        51        63        49        51        63        65
        63        65        67        79        65        67        79        81
        79        81        83        95        81        83        95        97
        95        97        99       119        97        99       119       121
       119       121       123       138       121       123       138       140
       138       140       142       162       140       142       162       164
       162       164       166       181       164       166       181       183
       181       183       185       205       183       185       205       207
       205       207       209       224       207       209       224       226
       258       260       262       268       260       262       268       270
       268       270       272       287       270       272       287       289
       287       289       291       297       289       291       297       299
       297       299       301       313       299       301       313       315
       313       315       317       329       315       317       329       331
       329       331       333       345       331       333       345       347
       345       347       349       369       347       349       369       371
       369       371       373       388       371       373       388       390
       388       390       392       412       390       392       412       414
       412       414       416       431       414       416       431       433
       431       433       435       455       433       435       455       457
       455       457       459       474       457       459       474       476
